<?xml version="1.0" encoding="ISO-8859-1"?>
<modeling>
 <generator>
  <i name="program" type="string">vasp </i>
  <i name="version" type="string">5.4.4.18Apr17-6-g9f103f2a35  </i>
  <i name="subversion" type="string">(build Oct 13 2020 09:06:49) complex            parallel </i>
  <i name="platform" type="string">LinuxIFC </i>
  <i name="date" type="string">2020 11 02 </i>
  <i name="time" type="string">18:46:53 </i>
 </generator>
 <incar>
  <i type="string" name="PREC">high</i>
  <i type="string" name="ALGO">Fast</i>
  <i type="int" name="ISPIN">     2</i>
  <i type="int" name="ICHARG">     2</i>
  <i type="int" name="NELM">   100</i>
  <i type="int" name="NELMIN">     5</i>
  <i type="int" name="IBRION">     2</i>
  <i name="EDIFF">      0.00000100</i>
  <i type="int" name="NSW">   100</i>
  <i type="int" name="ISIF">     2</i>
  <v name="MAGMOM">      5.00000000      5.00000000      5.00000000      5.00000000      5.00000000      5.00000000      5.00000000      5.00000000      5.00000000      5.00000000      5.00000000      5.00000000      5.00000000      5.00000000</v>
  <i type="string" name="LREAL">Auto</i>
  <i type="int" name="ISMEAR">     0</i>
  <i name="SIGMA">      0.05000000</i>
  <i type="logical" name="LWAVE"> F  </i>
  <i type="int" name="LORBIT">    11</i>
  <v type="int" name="KPOINT_BSE">    -1     0     0     0</v>
  <i type="int" name="NELM">   100</i>
 </incar>
 <structure name="primitive_cell" >
  <crystal>
   <varray name="basis" >
    <v>      30.00000000       0.00000000       0.00000000 </v>
    <v>       0.00000000      30.00000000       0.00000000 </v>
    <v>       0.00000000       0.00000000      30.00000000 </v>
   </varray>
   <i name="volume">  27000.00000000 </i>
   <varray name="rec_basis" >
    <v>       0.03333333       0.00000000       0.00000000 </v>
    <v>       0.00000000       0.03333333       0.00000000 </v>
    <v>       0.00000000       0.00000000       0.03333333 </v>
   </varray>
  </crystal>
  <varray name="positions" >
   <v>      -0.50000000      -0.50000000      -0.50000000 </v>
   <v>      -0.43242674       0.49689957       0.44389616 </v>
   <v>       0.43494293      -0.45333363      -0.45708266 </v>
   <v>      -0.49055015      -0.40832641      -0.48694482 </v>
   <v>      -0.41410775      -0.47716284      -0.46651055 </v>
   <v>      -0.48798295      -0.45982223      -0.40947467 </v>
   <v>      -0.41791831      -0.41164093       0.45223255 </v>
   <v>      -0.40614627      -0.37300613      -0.46193547 </v>
   <v>      -0.34403337      -0.46533809       0.47048924 </v>
   <v>      -0.40997085      -0.42675813      -0.38605687 </v>
   <v>      -0.37683700      -0.46062313       0.38594098 </v>
   <v>      -0.45724318      -0.33355939       0.47487935 </v>
   <v>      -0.33345283      -0.42983127      -0.44981119 </v>
   <v>      -0.34743564      -0.36116539      -0.39199353 </v>
  </varray>
 </structure>
 <varray name="primitive_index" >
  <v type="int" >        1 </v>
  <v type="int" >        9 </v>
  <v type="int" >       13 </v>
  <v type="int" >        5 </v>
  <v type="int" >        2 </v>
  <v type="int" >        8 </v>
  <v type="int" >        4 </v>
  <v type="int" >        7 </v>
  <v type="int" >        6 </v>
  <v type="int" >       12 </v>
  <v type="int" >       10 </v>
  <v type="int" >       14 </v>
  <v type="int" >        3 </v>
  <v type="int" >       11 </v>
 </varray>
 <kpoints>
  <generation param="Gamma">
   <v type="int" name="divisions">       1        1        1 </v>
   <v name="usershift">      0.00000000       0.00000000       0.00000000 </v>
   <v name="genvec1">      1.00000000       0.00000000       0.00000000 </v>
   <v name="genvec2">      0.00000000       1.00000000       0.00000000 </v>
   <v name="genvec3">      0.00000000       0.00000000       1.00000000 </v>
   <v name="shift">      0.00000000       0.00000000       0.00000000 </v>
  </generation>
  <varray name="kpointlist" >
   <v>       0.00000000       0.00000000       0.00000000 </v>
  </varray>
  <varray name="weights" >
   <v>       1.00000000 </v>
  </varray>
 </kpoints>
 <parameters>
  <separator name="general" >
   <i type="string" name="SYSTEM">unknown system</i>
   <i type="logical" name="LCOMPAT"> F  </i>
  </separator>
  <separator name="electronic" >
   <i type="string" name="PREC">high</i>
   <i name="ENMAX">    287.43500000</i>
   <i name="ENAUG">    356.67000000</i>
   <i name="EDIFF">      0.00000100</i>
   <i type="int" name="IALGO">    68</i>
   <i type="int" name="IWAVPR">    11</i>
   <i type="int" name="NBANDS">   160</i>
   <i name="NELECT">    154.00000000</i>
   <i type="int" name="TURBO">     0</i>
   <i type="int" name="IRESTART">     0</i>
   <i type="int" name="NREBOOT">     0</i>
   <i type="int" name="NMIN">     0</i>
   <i name="EREF">      0.00000000</i>
   <separator name="electronic smearing" >
    <i type="int" name="ISMEAR">     0</i>
    <i name="SIGMA">      0.05000000</i>
    <i name="KSPACING">      0.50000000</i>
    <i type="logical" name="KGAMMA"> T  </i>
   </separator>
   <separator name="electronic projectors" >
    <i type="logical" name="LREAL"> T  </i>
    <v name="ROPT">     -0.00040000</v>
    <i type="int" name="LMAXPAW">  -100</i>
    <i type="int" name="LMAXMIX">     2</i>
    <i type="logical" name="NLSPLINE"> F  </i>
   </separator>
   <separator name="electronic startup" >
    <i type="int" name="ISTART">     0</i>
    <i type="int" name="ICHARG">     2</i>
    <i type="int" name="INIWAV">     1</i>
   </separator>
   <separator name="electronic spin" >
    <i type="int" name="ISPIN">     2</i>
    <i type="logical" name="LNONCOLLINEAR"> F  </i>
    <v name="MAGMOM">      5.00000000      5.00000000      5.00000000      5.00000000      5.00000000      5.00000000      5.00000000      5.00000000      5.00000000      5.00000000      5.00000000      5.00000000      5.00000000      5.00000000</v>
    <i name="NUPDOWN">     -1.00000000</i>
    <i type="logical" name="LSORBIT"> F  </i>
    <v name="SAXIS">      0.00000000      0.00000000      1.00000000</v>
    <i type="logical" name="LSPIRAL"> F  </i>
    <v name="QSPIRAL">      0.00000000      0.00000000      0.00000000</v>
    <i type="logical" name="LZEROZ"> F  </i>
   </separator>
   <separator name="electronic exchange-correlation" >
    <i type="logical" name="LASPH"> F  </i>
    <i type="logical" name="LMETAGGA"> F  </i>
   </separator>
   <separator name="electronic convergence" >
    <i type="int" name="NELM">   100</i>
    <i type="int" name="NELMDL">    -5</i>
    <i type="int" name="NELMIN">     5</i>
    <i name="ENINI">    287.43500000</i>
    <separator name="electronic convergence detail" >
     <i type="logical" name="LDIAG"> T  </i>
     <i type="logical" name="LSUBROT"> F  </i>
     <i name="WEIMIN">      0.00100000</i>
     <i name="EBREAK">      0.00000000</i>
     <i name="DEPER">      0.30000000</i>
     <i type="int" name="NRMM">     4</i>
     <i name="TIME">      0.40000000</i>
    </separator>
   </separator>
   <separator name="electronic mixer" >
    <i name="AMIX">      0.40000000</i>
    <i name="BMIX">      1.00000000</i>
    <i name="AMIN">      0.10000000</i>
    <i name="AMIX_MAG">      1.60000000</i>
    <i name="BMIX_MAG">      1.00000000</i>
    <separator name="electronic mixer details" >
     <i type="int" name="IMIX">     4</i>
     <i type="logical" name="MIXFIRST"> F  </i>
     <i type="int" name="MAXMIX">   -45</i>
     <i name="WC">    100.00000000</i>
     <i type="int" name="INIMIX">     1</i>
     <i type="int" name="MIXPRE">     1</i>
     <i type="int" name="MREMOVE">     5</i>
    </separator>
   </separator>
   <separator name="electronic dipolcorrection" >
    <i type="logical" name="LDIPOL"> F  </i>
    <i type="logical" name="LMONO"> F  </i>
    <i type="int" name="IDIPOL">     0</i>
    <i name="EPSILON">      1.00000000</i>
    <v name="DIPOL">   -100.00000000   -100.00000000   -100.00000000</v>
    <i name="EFIELD">      0.00000000</i>
   </separator>
  </separator>
  <separator name="grids" >
   <i type="int" name="NGX">   168</i>
   <i type="int" name="NGY">   168</i>
   <i type="int" name="NGZ">   168</i>
   <i type="int" name="NGXF">   250</i>
   <i type="int" name="NGYF">   250</i>
   <i type="int" name="NGZF">   250</i>
   <i type="logical" name="ADDGRID"> F  </i>
  </separator>
  <separator name="ionic" >
   <i type="int" name="NSW">   100</i>
   <i type="int" name="IBRION">     2</i>
   <i type="int" name="MDALGO">     0</i>
   <i type="int" name="ISIF">     2</i>
   <i name="PSTRESS">      0.00000000</i>
   <i name="EDIFFG">      0.00001000</i>
   <i type="int" name="NFREE">     1</i>
   <i name="POTIM">      0.50000000</i>
   <i name="SMASS">     -3.00000000</i>
   <i name="SCALEE">      1.00000000</i>
  </separator>
  <separator name="ionic md" >
   <i name="TEBEG">      0.00010000</i>
   <i name="TEEND">      0.00010000</i>
   <i type="int" name="NBLOCK">     1</i>
   <i type="int" name="KBLOCK">   100</i>
   <i type="int" name="NPACO">   256</i>
   <i name="APACO">     16.00000000</i>
  </separator>
  <separator name="symmetry" >
   <i type="int" name="ISYM">     2</i>
   <i name="SYMPREC">      0.00001000</i>
  </separator>
  <separator name="dos" >
   <i type="int" name="LORBIT">    11</i>
   <v name="RWIGS">     -1.00000000</v>
   <i type="int" name="NEDOS">   301</i>
   <i name="EMIN">     10.00000000</i>
   <i name="EMAX">    -10.00000000</i>
   <i name="EFERMI">      0.00000000</i>
  </separator>
  <separator name="writing" >
   <i type="int" name="NWRITE">     2</i>
   <i type="logical" name="LWAVE"> F  </i>
   <i type="logical" name="LDOWNSAMPLE"> F  </i>
   <i type="logical" name="LCHARG"> T  </i>
   <i type="logical" name="LPARD"> F  </i>
   <i type="logical" name="LVTOT"> F  </i>
   <i type="logical" name="LVHAR"> F  </i>
   <i type="logical" name="LELF"> F  </i>
   <i type="logical" name="LOPTICS"> F  </i>
   <v name="STM">      0.00000000      0.00000000      0.00000000      0.00000000      0.00000000      0.00000000      0.00000000</v>
  </separator>
  <separator name="performance" >
   <i type="int" name="NPAR">    40</i>
   <i type="int" name="NSIM">     4</i>
   <i type="int" name="NBLK">    -1</i>
   <i type="logical" name="LPLANE"> T  </i>
   <i type="logical" name="LSCALAPACK"> T  </i>
   <i type="logical" name="LSCAAWARE"> F  </i>
   <i type="logical" name="LSCALU"> F  </i>
   <i type="logical" name="LASYNC"> F  </i>
   <i type="logical" name="LORBITALREAL"> F  </i>
  </separator>
  <separator name="miscellaneous" >
   <i type="int" name="IDIOT">     3</i>
   <i type="int" name="ISPECIAL">     0</i>
   <i type="logical" name="LMUSIC"> F  </i>
   <v name="POMASS">    196.96600000</v>
   <v name="DARWINR">      0.00000000</v>
   <v name="DARWINV">      1.00000000</v>
   <i type="logical" name="LCORR"> T  </i>
  </separator>
  <i type="logical" name="GGA_COMPAT"> T  </i>
  <i type="logical" name="LBERRY"> F  </i>
  <i type="int" name="ICORELEVEL">     0</i>
  <i type="logical" name="LDAU"> F  </i>
  <i type="int" name="I_CONSTRAINED_M">     0</i>
  <separator name="electronic exchange-correlation" >
   <i type="string" name="GGA">--</i>
   <i type="int" name="VOSKOWN">     0</i>
   <i type="logical" name="LHFCALC"> F  </i>
   <i type="string" name="PRECFOCK"></i>
   <i type="logical" name="LSYMGRAD"> F  </i>
   <i type="logical" name="LHFONE"> F  </i>
   <i type="logical" name="LRHFCALC"> F  </i>
   <i type="logical" name="LTHOMAS"> F  </i>
   <i type="logical" name="LMODELHF"> F  </i>
   <i name="ENCUT4O">     -1.00000000</i>
   <i type="int" name="EXXOEP">     0</i>
   <i type="int" name="FOURORBIT">     0</i>
   <i name="AEXX">      0.00000000</i>
   <i name="HFALPHA">      0.00000000</i>
   <i name="MCALPHA">      0.00000000</i>
   <i name="ALDAX">      1.00000000</i>
   <i name="AGGAX">      1.00000000</i>
   <i name="ALDAC">      1.00000000</i>
   <i name="AGGAC">      1.00000000</i>
   <i type="int" name="NKREDX">     1</i>
   <i type="int" name="NKREDY">     1</i>
   <i type="int" name="NKREDZ">     1</i>
   <i type="logical" name="SHIFTRED"> F  </i>
   <i type="logical" name="ODDONLY"> F  </i>
   <i type="logical" name="EVENONLY"> F  </i>
   <i type="int" name="LMAXFOCK">     0</i>
   <i type="int" name="NMAXFOCKAE">     0</i>
   <i type="logical" name="LFOCKAEDFT"> F  </i>
   <i name="HFSCREEN">      0.00000000</i>
   <i name="HFSCREENC">      0.00000000</i>
   <i type="int" name="NBANDSGWLOW">     0</i>
  </separator>
  <separator name="vdW DFT" >
   <i type="logical" name="LUSE_VDW"> F  </i>
   <i name="Zab_VDW">     -0.84910000</i>
   <i name="PARAM1">      0.12340000</i>
   <i name="PARAM2">      1.00000000</i>
   <i name="PARAM3">      0.00000000</i>
  </separator>
  <separator name="model GW" >
   <i type="int" name="MODEL_GW">     0</i>
   <i name="MODEL_EPS0">   1157.14285714</i>
   <i name="MODEL_ALPHA">      1.00000000</i>
  </separator>
  <separator name="linear response parameters" >
   <i type="logical" name="LEPSILON"> F  </i>
   <i type="logical" name="LRPA"> F  </i>
   <i type="logical" name="LNABLA"> F  </i>
   <i type="logical" name="LVEL"> F  </i>
   <i type="int" name="KINTER">     0</i>
   <i name="CSHIFT">      0.10000000</i>
   <i name="OMEGAMAX">     -1.00000000</i>
   <i name="DEG_THRESHOLD">      0.00200000</i>
   <i name="RTIME">     -0.10000000</i>
   <i name="WPLASMAI">      0.00000000</i>
   <v name="DFIELD">      0.00000000      0.00000000      0.00000000</v>
   <v name="WPLASMA">      0.00000000      0.00000000      0.00000000      0.00000000      0.00000000      0.00000000      0.00000000      0.00000000      0.00000000</v>
  </separator>
  <separator name="orbital magnetization" >
   <i type="logical" name="NUCIND"> F  </i>
   <v name="MAGPOS">      0.00000000      0.00000000      0.00000000</v>
   <i type="logical" name="LNICSALL"> T  </i>
   <i type="logical" name="ORBITALMAG"> F  </i>
   <i type="logical" name="LMAGBLOCH"> F  </i>
   <i type="logical" name="LCHIMAG"> F  </i>
   <i type="logical" name="LGAUGE"> T  </i>
   <i type="int" name="MAGATOM">     0</i>
   <v name="MAGDIPOL">      0.00000000      0.00000000      0.00000000</v>
   <v name="AVECCONST">      0.00000000      0.00000000      0.00000000</v>
  </separator>
  <separator name="response functions" >
   <i type="logical" name="LADDER"> F  </i>
   <i type="logical" name="LRPAFORCE"> F  </i>
   <i type="logical" name="LFXC"> F  </i>
   <i type="logical" name="LHARTREE"> T  </i>
   <i type="int" name="IBSE">     0</i>
   <v type="int" name="KPOINT">    -1     0     0     0</v>
   <i type="logical" name="LTCTE"> F  </i>
   <i type="logical" name="LTETE"> F  </i>
   <i type="logical" name="LTRIPLET"> F  </i>
   <i type="logical" name="LFXCEPS"> F  </i>
   <i type="logical" name="LFXHEG"> F  </i>
   <i type="int" name="NATURALO">     2</i>
   <i type="logical" name="L2ORDER"> F  </i>
   <i type="logical" name="LMP2LT"> F  </i>
   <i type="logical" name="LUSEW"> F  </i>
   <i name="ENCUTGW">     -2.00000000</i>
   <i name="ENCUTGWSOFT">     -2.00000000</i>
   <i name="ENCUTLF">     -1.00000000</i>
   <i type="int" name="LMAXMP2">    -1</i>
   <i name="SCISSOR">      0.00000000</i>
   <i type="int" name="NOMEGA">     0</i>
   <i type="int" name="NOMEGAR">     0</i>
   <i type="int" name="NBANDSGW">    -1</i>
   <i type="int" name="NBANDSO">    -1</i>
   <i type="int" name="NBANDSV">    -1</i>
   <i type="int" name="NELM">   100</i>
   <i type="int" name="NELMHF">     1</i>
   <i type="int" name="DIM">     3</i>
   <i type="int" name="ANTIRES">     0</i>
   <i name="OMEGAMAX">    -30.00000000</i>
   <i name="OMEGAMIN">    -30.00000000</i>
   <i name="OMEGATL">   -200.00000000</i>
   <i type="int" name="OMEGAGRID">   140</i>
   <i name="CSHIFT">     -0.10000000</i>
   <i type="logical" name="SELFENERGY"> F  </i>
   <i type="logical" name="LSPECTRAL"> F  </i>
   <i type="logical" name="LSPECTRALGW"> F  </i>
   <i type="logical" name="LSINGLES"> F  </i>
   <i type="logical" name="LFERMIGW"> F  </i>
   <i type="logical" name="ODDONLYGW"> F  </i>
   <i type="logical" name="EVENONLYGW"> F  </i>
   <i type="int" name="NKREDLFX">     1</i>
   <i type="int" name="NKREDLFY">     1</i>
   <i type="int" name="NKREDLFZ">     1</i>
   <i type="int" name="MAXMEM">  2800</i>
   <i type="int" name="TELESCOPE">     0</i>
   <i type="int" name="TAUPAR">     1</i>
   <i type="int" name="OMEGAPAR">    -1</i>
   <i name="LAMBDA">      1.00000000</i>
  </separator>
  <separator name="External order field" >
   <i name="OFIELD_KAPPA">      0.00000000</i>
   <v name="OFIELD_K">      0.00000000      0.00000000      0.00000000</v>
   <i name="OFIELD_Q6_NEAR">      0.00000000</i>
   <i name="OFIELD_Q6_FAR">      0.00000000</i>
   <i name="OFIELD_A">      0.00000000</i>
  </separator>
 </parameters>
 <atominfo>
  <atoms>      14 </atoms>
  <types>       1 </types>
  <array name="atoms" >
   <dimension dim="1">ion</dimension>
   <field type="string">element</field>
   <field type="int">atomtype</field>
   <set>
    <rc><c>Au</c><c>   1</c></rc>
    <rc><c>Au</c><c>   1</c></rc>
    <rc><c>Au</c><c>   1</c></rc>
    <rc><c>Au</c><c>   1</c></rc>
    <rc><c>Au</c><c>   1</c></rc>
    <rc><c>Au</c><c>   1</c></rc>
    <rc><c>Au</c><c>   1</c></rc>
    <rc><c>Au</c><c>   1</c></rc>
    <rc><c>Au</c><c>   1</c></rc>
    <rc><c>Au</c><c>   1</c></rc>
    <rc><c>Au</c><c>   1</c></rc>
    <rc><c>Au</c><c>   1</c></rc>
    <rc><c>Au</c><c>   1</c></rc>
    <rc><c>Au</c><c>   1</c></rc>
   </set>
  </array>
  <array name="atomtypes" >
   <dimension dim="1">type</dimension>
   <field type="int">atomspertype</field>
   <field type="string">element</field>
   <field>mass</field>
   <field>valence</field>
   <field type="string">pseudopotential</field>
   <set>
    <rc><c>  14</c><c>Au</c><c>    196.96600000</c><c>     11.00000000</c><c> PAW_PBE Au 06Sep2000                   </c></rc>
   </set>
  </array>
 </atominfo>
 <structure name="initialpos" >
  <crystal>
   <varray name="basis" >
    <v>      30.00000000       0.00000000       0.00000000 </v>
    <v>       0.00000000      30.00000000       0.00000000 </v>
    <v>       0.00000000       0.00000000      30.00000000 </v>
   </varray>
   <i name="volume">  27000.00000000 </i>
   <varray name="rec_basis" >
    <v>       0.03333333       0.00000000       0.00000000 </v>
    <v>       0.00000000       0.03333333       0.00000000 </v>
    <v>       0.00000000       0.00000000       0.03333333 </v>
   </varray>
  </crystal>
  <varray name="positions" >
   <v>       0.50000000       0.50000000       0.50000000 </v>
   <v>       0.58589225       0.52283716       0.53348945 </v>
   <v>       0.66654717       0.57016873       0.55018881 </v>
   <v>       0.58208169       0.58835907       0.45223255 </v>
   <v>       0.50944985       0.59167359       0.51305518 </v>
   <v>       0.65596663       0.53466191       0.47048924 </v>
   <v>       0.59385373       0.62699387       0.53806453 </v>
   <v>       0.51201705       0.54017777       0.59052533 </v>
   <v>       0.56757326       0.49689957       0.44389616 </v>
   <v>       0.62316300       0.53937687       0.38594098 </v>
   <v>       0.65256436       0.63883461       0.60800647 </v>
   <v>       0.59002915       0.57324187       0.61394313 </v>
   <v>       0.43494293       0.54666637       0.54291734 </v>
   <v>       0.54275682       0.66644061       0.47487935 </v>
  </varray>
 </structure>
 <calculation>
  <scstep>
   <time name="dav">   11.14   11.15</time>
   <time name="total">   12.25   12.27</time>
   <energy>
    <i name="alphaZ">     13.59528883 </i>
    <i name="ewald">  24977.98379452 </i>
    <i name="hartreedc"> -37365.41400381 </i>
    <i name="XCdc">    229.47847577 </i>
    <i name="pawpsdc">  10438.33610567 </i>
    <i name="pawaedc"> -10112.15912128 </i>
    <i name="eentropy">     -0.11867451 </i>
    <i name="bandstr">     -6.70445470 </i>
    <i name="atom">  12964.06378724 </i>
    <i name="e_fr_energy">   1139.06119774 </i>
    <i name="e_wo_entrp">   1139.17987225 </i>
    <i name="e_0_energy">   1139.12053500 </i>
   </energy>
  </scstep>
  <scstep>
   <time name="dav">   17.62   17.63</time>
   <time name="total">   17.62   17.64</time>
   <energy>
    <i name="e_fr_energy">    568.16475008 </i>
    <i name="e_wo_entrp">    568.29362943 </i>
    <i name="e_0_energy">    568.22918975 </i>
   </energy>
  </scstep>
  <scstep>
   <time name="dav">   17.59   17.61</time>
   <time name="total">   17.59   17.61</time>
   <energy>
    <i name="e_fr_energy">     65.59938190 </i>
    <i name="e_wo_entrp">     65.61268576 </i>
    <i name="e_0_energy">     65.60603383 </i>
   </energy>
  </scstep>
  <scstep>
   <time name="dav">   12.13   12.14</time>
   <time name="total">   12.13   12.15</time>
   <energy>
    <i name="e_fr_energy">     10.77851086 </i>
    <i name="e_wo_entrp">     10.83761401 </i>
    <i name="e_0_energy">     10.80806244 </i>
   </energy>
  </scstep>
  <scstep>
   <time name="dav">   12.67   12.72</time>
   <time name="total">   13.83   13.88</time>
   <energy>
    <i name="e_fr_energy">      9.48297497 </i>
    <i name="e_wo_entrp">      9.53520283 </i>
    <i name="e_0_energy">      9.50908890 </i>
   </energy>
  </scstep>
  <scstep>
   <time name="diag">    2.35    2.36</time>
   <time name="diis">    8.98    9.00</time>
   <time name="orth">    0.23    0.23</time>
   <time name="total">   13.67   13.71</time>
   <energy>
    <i name="e_fr_energy">    234.54233480 </i>
    <i name="e_wo_entrp">    234.54251638 </i>
    <i name="e_0_energy">    234.54242559 </i>
   </energy>
  </scstep>
  <scstep>
   <time name="diag">    2.35    2.35</time>
   <time name="diis">    8.95    8.96</time>
   <time name="orth">    0.23    0.23</time>
   <time name="total">   13.62   13.64</time>
   <energy>
    <i name="e_fr_energy">    164.87046762 </i>
    <i name="e_wo_entrp">    164.87046944 </i>
    <i name="e_0_energy">    164.87046853 </i>
   </energy>
  </scstep>
  <scstep>
   <time name="diag">    2.35    2.35</time>
   <time name="diis">    8.88    8.89</time>
   <time name="orth">    0.23    0.23</time>
   <time name="total">   13.56   13.58</time>
   <energy>
    <i name="e_fr_energy">    140.18601560 </i>
    <i name="e_wo_entrp">    140.19482772 </i>
    <i name="e_0_energy">    140.19042166 </i>
   </energy>
  </scstep>
  <scstep>
   <time name="diag">    2.35    2.35</time>
   <time name="diis">    8.86    8.87</time>
   <time name="orth">    0.23    0.23</time>
   <time name="total">   13.54   13.55</time>
   <energy>
    <i name="e_fr_energy">     95.04536423 </i>
    <i name="e_wo_entrp">     95.07351796 </i>
    <i name="e_0_energy">     95.05944109 </i>
   </energy>
  </scstep>
  <scstep>
   <time name="diag">    2.34    2.35</time>
   <time name="diis">    8.92    8.93</time>
   <time name="orth">    0.23    0.23</time>
   <time name="total">   13.59   13.60</time>
   <energy>
    <i name="e_fr_energy">     62.05609939 </i>
    <i name="e_wo_entrp">     62.05609939 </i>
    <i name="e_0_energy">     62.05609939 </i>
   </energy>
  </scstep>
  <scstep>
   <time name="diag">    2.34    2.34</time>
   <time name="diis">    8.80    8.81</time>
   <time name="orth">    0.23    0.23</time>
   <time name="total">   13.39   13.40</time>
   <energy>
    <i name="e_fr_energy">     20.93284126 </i>
    <i name="e_wo_entrp">     20.96126865 </i>
    <i name="e_0_energy">     20.94705495 </i>
   </energy>
  </scstep>
  <scstep>
   <time name="diag">    2.34    2.34</time>
   <time name="diis">    8.84    8.85</time>
   <time name="orth">    0.23    0.23</time>
   <time name="total">   13.44   13.45</time>
   <energy>
    <i name="e_fr_energy">      1.41941915 </i>
    <i name="e_wo_entrp">      1.43392463 </i>
    <i name="e_0_energy">      1.42667189 </i>
   </energy>
  </scstep>
  <scstep>
   <time name="diag">    2.34    2.34</time>
   <time name="diis">    8.80    8.81</time>
   <time name="orth">    0.23    0.23</time>
   <time name="total">   13.40   13.42</time>
   <energy>
    <i name="e_fr_energy">     -7.69751225 </i>
    <i name="e_wo_entrp">     -7.69751218 </i>
    <i name="e_0_energy">     -7.69751222 </i>
   </energy>
  </scstep>
  <scstep>
   <time name="diag">    2.34    2.34</time>
   <time name="diis">    8.78    8.79</time>
   <time name="orth">    0.23    0.23</time>
   <time name="total">   13.39   13.40</time>
   <energy>
    <i name="e_fr_energy">    -22.23418788 </i>
    <i name="e_wo_entrp">    -22.23418788 </i>
    <i name="e_0_energy">    -22.23418788 </i>
   </energy>
  </scstep>
  <scstep>
   <time name="diag">    2.34    2.35</time>
   <time name="diis">    8.78    8.79</time>
   <time name="orth">    0.24    0.24</time>
   <time name="total">   13.39   13.40</time>
   <energy>
    <i name="e_fr_energy">    -28.18520776 </i>
    <i name="e_wo_entrp">    -28.18520776 </i>
    <i name="e_0_energy">    -28.18520776 </i>
   </energy>
  </scstep>
  <scstep>
   <time name="diag">    2.34    2.34</time>
   <time name="diis">    9.03    9.03</time>
   <time name="orth">    0.23    0.23</time>
   <time name="total">   13.63   13.65</time>
   <energy>
    <i name="e_fr_energy">    -29.74886433 </i>
    <i name="e_wo_entrp">    -29.74886433 </i>
    <i name="e_0_energy">    -29.74886433 </i>
   </energy>
  </scstep>
  <scstep>
   <time name="diag">    2.35    2.35</time>
   <time name="diis">    8.78    8.79</time>
   <time name="orth">    0.23    0.23</time>
   <time name="total">   13.40   13.42</time>
   <energy>
    <i name="e_fr_energy">    -31.24736097 </i>
    <i name="e_wo_entrp">    -31.24736097 </i>
    <i name="e_0_energy">    -31.24736097 </i>
   </energy>
  </scstep>
  <scstep>
   <time name="diag">    2.34    2.34</time>
   <time name="diis">    9.08    9.09</time>
   <time name="orth">    0.23    0.23</time>
   <time name="total">   13.70   13.71</time>
   <energy>
    <i name="e_fr_energy">    -31.60021218 </i>
    <i name="e_wo_entrp">    -31.60021218 </i>
    <i name="e_0_energy">    -31.60021218 </i>
   </energy>
  </scstep>
  <scstep>
   <time name="diag">    2.34    2.34</time>
   <time name="diis">    8.79    8.79</time>
   <time name="orth">    0.23    0.23</time>
   <time name="total">   13.41   13.42</time>
   <energy>
    <i name="e_fr_energy">    -32.47827516 </i>
    <i name="e_wo_entrp">    -32.47827516 </i>
    <i name="e_0_energy">    -32.47827516 </i>
   </energy>
  </scstep>
  <scstep>
   <time name="diag">    2.34    2.34</time>
   <time name="diis">    8.79    8.80</time>
   <time name="orth">    0.23    0.23</time>
   <time name="total">   13.41   13.42</time>
   <energy>
    <i name="e_fr_energy">    -32.82526661 </i>
    <i name="e_wo_entrp">    -32.82526661 </i>
    <i name="e_0_energy">    -32.82526661 </i>
   </energy>
  </scstep>
  <scstep>
   <time name="diag">    2.34    2.34</time>
   <time name="diis">    8.73    8.75</time>
   <time name="orth">    0.23    0.23</time>
   <time name="total">   13.36   13.38</time>
   <energy>
    <i name="e_fr_energy">    -33.32538133 </i>
    <i name="e_wo_entrp">    -33.32538133 </i>
    <i name="e_0_energy">    -33.32538133 </i>
   </energy>
  </scstep>
  <scstep>
   <time name="diag">    2.34    2.34</time>
   <time name="diis">    8.72    8.73</time>
   <time name="orth">    0.23    0.23</time>
   <time name="total">   13.34   13.35</time>
   <energy>
    <i name="e_fr_energy">    -33.56497349 </i>
    <i name="e_wo_entrp">    -33.56497349 </i>
    <i name="e_0_energy">    -33.56497349 </i>
   </energy>
  </scstep>
  <scstep>
   <time name="diag">    2.34    2.34</time>
   <time name="diis">    8.74    8.75</time>
   <time name="orth">    0.23    0.23</time>
   <time name="total">   13.38   13.39</time>
   <energy>
    <i name="e_fr_energy">    -33.62281215 </i>
    <i name="e_wo_entrp">    -33.62281215 </i>
    <i name="e_0_energy">    -33.62281215 </i>
   </energy>
  </scstep>
  <scstep>
   <time name="diag">    2.34    2.34</time>
   <time name="diis">    8.76    8.77</time>
   <time name="orth">    0.23    0.23</time>
   <time name="total">   13.41   13.42</time>
   <energy>
    <i name="e_fr_energy">    -33.62940562 </i>
    <i name="e_wo_entrp">    -33.62940562 </i>
    <i name="e_0_energy">    -33.62940562 </i>
   </energy>
  </scstep>
  <scstep>
   <time name="diag">    2.34    2.34</time>
   <time name="diis">    8.75    8.76</time>
   <time name="orth">    0.23    0.23</time>
   <time name="total">   13.39   13.41</time>
   <energy>
    <i name="e_fr_energy">    -33.63711294 </i>
    <i name="e_wo_entrp">    -33.63711294 </i>
    <i name="e_0_energy">    -33.63711294 </i>
   </energy>
  </scstep>
  <scstep>
   <time name="diag">    2.34    2.34</time>
   <time name="diis">    8.80    8.80</time>
   <time name="orth">    0.24    0.24</time>
   <time name="total">   13.45   13.46</time>
   <energy>
    <i name="e_fr_energy">    -33.67084988 </i>
    <i name="e_wo_entrp">    -33.67084988 </i>
    <i name="e_0_energy">    -33.67084988 </i>
   </energy>
  </scstep>
  <scstep>
   <time name="diag">    2.34    2.34</time>
   <time name="diis">    8.75    8.76</time>
   <time name="orth">    0.23    0.23</time>
   <time name="total">   13.41   13.43</time>
   <energy>
    <i name="e_fr_energy">    -33.69337194 </i>
    <i name="e_wo_entrp">    -33.69337194 </i>
    <i name="e_0_energy">    -33.69337194 </i>
   </energy>
  </scstep>
  <scstep>
   <time name="diag">    2.34    2.34</time>
   <time name="diis">    8.73    8.74</time>
   <time name="orth">    0.23    0.23</time>
   <time name="total">   13.38   13.40</time>
   <energy>
    <i name="e_fr_energy">    -33.69967336 </i>
    <i name="e_wo_entrp">    -33.69967336 </i>
    <i name="e_0_energy">    -33.69967336 </i>
   </energy>
  </scstep>
  <scstep>
   <time name="diag">    2.34    2.34</time>
   <time name="diis">    8.75    8.76</time>
   <time name="orth">    0.23    0.23</time>
   <time name="total">   13.41   13.43</time>
   <energy>
    <i name="e_fr_energy">    -33.70383132 </i>
    <i name="e_wo_entrp">    -33.70383132 </i>
    <i name="e_0_energy">    -33.70383132 </i>
   </energy>
  </scstep>
  <scstep>
   <time name="diag">    2.34    2.34</time>
   <time name="diis">    8.75    8.76</time>
   <time name="orth">    0.23    0.23</time>
   <time name="total">   13.41   13.42</time>
   <energy>
    <i name="e_fr_energy">    -33.70768141 </i>
    <i name="e_wo_entrp">    -33.70768141 </i>
    <i name="e_0_energy">    -33.70768141 </i>
   </energy>
  </scstep>
  <scstep>
   <time name="diag">    2.33    2.34</time>
   <time name="diis">    8.43    8.44</time>
   <time name="orth">    0.23    0.23</time>
   <time name="total">   13.10   13.11</time>
   <energy>
    <i name="e_fr_energy">    -33.71004930 </i>
    <i name="e_wo_entrp">    -33.71004930 </i>
    <i name="e_0_energy">    -33.71004930 </i>
   </energy>
  </scstep>
  <scstep>
   <time name="diag">    2.34    2.34</time>
   <time name="diis">    8.23    8.24</time>
   <time name="orth">    0.23    0.23</time>
   <time name="total">   12.91   12.93</time>
   <energy>
    <i name="e_fr_energy">    -33.71161178 </i>
    <i name="e_wo_entrp">    -33.71161178 </i>
    <i name="e_0_energy">    -33.71161178 </i>
   </energy>
  </scstep>
  <scstep>
   <time name="diag">    2.34    2.34</time>
   <time name="diis">    7.84    7.84</time>
   <time name="orth">    0.23    0.23</time>
   <time name="total">   12.53   12.54</time>
   <energy>
    <i name="e_fr_energy">    -33.71225472 </i>
    <i name="e_wo_entrp">    -33.71225472 </i>
    <i name="e_0_energy">    -33.71225472 </i>
   </energy>
  </scstep>
  <scstep>
   <time name="diag">    2.34    2.35</time>
   <time name="diis">    7.31    7.32</time>
   <time name="orth">    0.23    0.23</time>
   <time name="total">   12.00   12.01</time>
   <energy>
    <i name="e_fr_energy">    -33.71256478 </i>
    <i name="e_wo_entrp">    -33.71256478 </i>
    <i name="e_0_energy">    -33.71256478 </i>
   </energy>
  </scstep>
  <scstep>
   <time name="diag">    2.35    2.35</time>
   <time name="diis">    7.20    7.20</time>
   <time name="orth">    0.23    0.23</time>
   <time name="total">   11.89   11.90</time>
   <energy>
    <i name="e_fr_energy">    -33.71267942 </i>
    <i name="e_wo_entrp">    -33.71267942 </i>
    <i name="e_0_energy">    -33.71267942 </i>
   </energy>
  </scstep>
  <scstep>
   <time name="diag">    2.34    2.34</time>
   <time name="diis">    7.10    7.10</time>
   <time name="orth">    0.23    0.23</time>
   <time name="total">   11.79   11.80</time>
   <energy>
    <i name="e_fr_energy">    -33.71272075 </i>
    <i name="e_wo_entrp">    -33.71272075 </i>
    <i name="e_0_energy">    -33.71272075 </i>
   </energy>
  </scstep>
  <scstep>
   <time name="diag">    2.33    2.34</time>
   <time name="diis">    6.92    6.92</time>
   <time name="orth">    0.23    0.23</time>
   <time name="total">   11.60   11.61</time>
   <energy>
    <i name="e_fr_energy">    -33.71273826 </i>
    <i name="e_wo_entrp">    -33.71273826 </i>
    <i name="e_0_energy">    -33.71273826 </i>
   </energy>
  </scstep>
  <scstep>
   <time name="diag">    2.34    2.34</time>
   <time name="diis">    6.71    6.72</time>
   <time name="orth">    0.23    0.23</time>
   <time name="total">   11.41   11.42</time>
   <energy>
    <i name="e_fr_energy">    -33.71274228 </i>
    <i name="e_wo_entrp">    -33.71274228 </i>
    <i name="e_0_energy">    -33.71274228 </i>
   </energy>
  </scstep>
  <scstep>
   <time name="diag">    2.34    2.34</time>
   <time name="diis">    6.01    6.02</time>
   <time name="orth">    0.23    0.23</time>
   <time name="total">   10.72   10.73</time>
   <energy>
    <i name="e_fr_energy">    -33.71274622 </i>
    <i name="e_wo_entrp">    -33.71274622 </i>
    <i name="e_0_energy">    -33.71274622 </i>
   </energy>
  </scstep>
  <scstep>
   <time name="diag">    2.34    2.34</time>
   <time name="diis">    6.02    6.04</time>
   <time name="orth">    0.24    0.23</time>
   <time name="total">   10.73   10.75</time>
   <energy>
    <i name="e_fr_energy">    -33.71275020 </i>
    <i name="e_wo_entrp">    -33.71275020 </i>
    <i name="e_0_energy">    -33.71275020 </i>
   </energy>
  </scstep>
  <scstep>
   <time name="diag">    2.33    2.34</time>
   <time name="diis">    5.67    5.68</time>
   <time name="orth">    0.23    0.23</time>
   <time name="total">   10.38   10.39</time>
   <energy>
    <i name="e_fr_energy">    -33.71275125 </i>
    <i name="e_wo_entrp">    -33.71275125 </i>
    <i name="e_0_energy">    -33.71275125 </i>
   </energy>
  </scstep>
  <scstep>
   <time name="diag">    2.33    2.34</time>
   <time name="diis">    5.67    5.67</time>
   <time name="orth">    0.23    0.23</time>
   <time name="total">    9.21    9.21</time>
   <energy>
    <i name="alphaZ">     13.59528883 </i>
    <i name="ewald">  24977.98379452 </i>
    <i name="hartreedc"> -37289.68736026 </i>
    <i name="XCdc">    197.13187170 </i>
    <i name="pawpsdc">  10476.78245555 </i>
    <i name="pawaedc"> -10176.25346941 </i>
    <i name="eentropy">     -0.00000000 </i>
    <i name="bandstr">  -1197.32912024 </i>
    <i name="atom">  12964.06378724 </i>
    <i name="e_fr_energy">    -33.71275206 </i>
    <i name="e_wo_entrp">    -33.71275206 </i>
    <i name="e_0_energy">    -33.71275206 </i>
   </energy>
  </scstep>
  <structure>
   <crystal>
    <varray name="basis" >
     <v>      30.00000000       0.00000000       0.00000000 </v>
     <v>       0.00000000      30.00000000       0.00000000 </v>
     <v>       0.00000000       0.00000000      30.00000000 </v>
    </varray>
    <i name="volume">  27000.00000000 </i>
    <varray name="rec_basis" >
     <v>       0.03333333       0.00000000       0.00000000 </v>
     <v>       0.00000000       0.03333333       0.00000000 </v>
     <v>       0.00000000       0.00000000       0.03333333 </v>
    </varray>
   </crystal>
   <varray name="positions" >
    <v>       0.50000000       0.50000000       0.50000000 </v>
    <v>       0.58589225       0.52283716       0.53348945 </v>
    <v>       0.66654717       0.57016873       0.55018881 </v>
    <v>       0.58208169       0.58835907       0.45223255 </v>
    <v>       0.50944985       0.59167359       0.51305518 </v>
    <v>       0.65596663       0.53466191       0.47048924 </v>
    <v>       0.59385373       0.62699387       0.53806453 </v>
    <v>       0.51201705       0.54017777       0.59052533 </v>
    <v>       0.56757326       0.49689957       0.44389616 </v>
    <v>       0.62316300       0.53937687       0.38594098 </v>
    <v>       0.65256436       0.63883461       0.60800647 </v>
    <v>       0.59002915       0.57324187       0.61394313 </v>
    <v>       0.43494293       0.54666637       0.54291734 </v>
    <v>       0.54275682       0.66644061       0.47487935 </v>
   </varray>
  </structure>
  <varray name="forces" >
   <v>      -0.00613917      -0.00390980       0.00729174 </v>
   <v>       0.00031687       0.00211812      -0.00030737 </v>
   <v>       0.00066300       0.00247246       0.00144012 </v>
   <v>       0.00418071      -0.00074308      -0.00273868 </v>
   <v>       0.00136382       0.00089394      -0.00192153 </v>
   <v>      -0.00075991      -0.00136784      -0.00291469 </v>
   <v>      -0.00143449       0.00135743      -0.00195739 </v>
   <v>      -0.00104395      -0.00022391       0.00254126 </v>
   <v>       0.00261034       0.00108281      -0.00084810 </v>
   <v>       0.00131029      -0.00093933       0.00077758 </v>
   <v>       0.00157019       0.00095141       0.00024861 </v>
   <v>      -0.00150425      -0.00092313      -0.00069030 </v>
   <v>      -0.00153626      -0.00062956      -0.00108083 </v>
   <v>       0.00040282      -0.00013951       0.00015958 </v>
  </varray>
  <varray name="stress" >
   <v>      -0.06349576       0.00047313      -0.00096090 </v>
   <v>       0.00047313      -0.06368896      -0.00017900 </v>
   <v>      -0.00096091      -0.00017901      -0.06309426 </v>
  </varray>
  <energy>
   <i name="e_fr_energy">    -33.71275206 </i>
   <i name="e_wo_entrp">    -33.71275206 </i>
   <i name="e_0_energy">     -0.00000000 </i>
  </energy>
  <time name="totalsc">  600.50  601.68</time>
 </calculation>
 <calculation>
  <scstep>
   <time name="dav">   12.54   12.71</time>
   <time name="total">   14.56   14.75</time>
   <energy>
    <i name="alphaZ">     13.59528883 </i>
    <i name="ewald">  24977.46743651 </i>
    <i name="hartreedc"> -37289.17396882 </i>
    <i name="XCdc">    197.13087119 </i>
    <i name="pawpsdc">  10476.78249387 </i>
    <i name="pawaedc"> -10176.25350630 </i>
    <i name="eentropy">     -0.00000000 </i>
    <i name="bandstr">  -1197.32516004 </i>
    <i name="atom">  12964.06378724 </i>
    <i name="e_fr_energy">    -33.71275751 </i>
    <i name="e_wo_entrp">    -33.71275751 </i>
    <i name="e_0_energy">    -33.71275751 </i>
   </energy>
  </scstep>
  <scstep>
   <time name="diag">    2.31    2.34</time>
   <time name="diis">    8.68    8.77</time>
   <time name="orth">    0.23    0.23</time>
   <time name="total">   13.25   13.38</time>
   <energy>
    <i name="e_fr_energy">    -33.71275839 </i>
    <i name="e_wo_entrp">    -33.71275839 </i>
    <i name="e_0_energy">    -33.71275839 </i>
   </energy>
  </scstep>
  <scstep>
   <time name="diag">    2.32    2.34</time>
   <time name="diis">    6.63    6.70</time>
   <time name="orth">    0.23    0.23</time>
   <time name="total">   11.19   11.30</time>
   <energy>
    <i name="e_fr_energy">    -33.71275872 </i>
    <i name="e_wo_entrp">    -33.71275872 </i>
    <i name="e_0_energy">    -33.71275872 </i>
   </energy>
  </scstep>
  <scstep>
   <time name="diag">    2.32    2.34</time>
   <time name="diis">    6.69    6.76</time>
   <time name="orth">    0.23    0.23</time>
   <time name="total">   11.26   11.37</time>
   <energy>
    <i name="e_fr_energy">    -33.71275941 </i>
    <i name="e_wo_entrp">    -33.71275941 </i>
    <i name="e_0_energy">    -33.71275941 </i>
   </energy>
  </scstep>
  <scstep>
   <time name="diag">    2.32    2.33</time>
   <time name="diis">    6.70    6.75</time>
   <time name="orth">    0.23    0.23</time>
   <time name="total">   10.22   10.29</time>
   <energy>
    <i name="alphaZ">     13.59528883 </i>
    <i name="ewald">  24977.46743651 </i>
    <i name="hartreedc"> -37289.18071947 </i>
    <i name="XCdc">    197.13098784 </i>
    <i name="pawpsdc">  10476.73695579 </i>
    <i name="pawaedc"> -10176.20606945 </i>
    <i name="eentropy">     -0.00000000 </i>
    <i name="bandstr">  -1197.32042696 </i>
    <i name="atom">  12964.06378724 </i>
    <i name="e_fr_energy">    -33.71275967 </i>
    <i name="e_wo_entrp">    -33.71275967 </i>
    <i name="e_0_energy">    -33.71275967 </i>
   </energy>
  </scstep>
  <structure>
   <crystal>
    <varray name="basis" >
     <v>      30.00000000       0.00000000       0.00000000 </v>
     <v>       0.00000000      30.00000000       0.00000000 </v>
     <v>       0.00000000       0.00000000      30.00000000 </v>
    </varray>
    <i name="volume">  27000.00000000 </i>
    <varray name="rec_basis" >
     <v>       0.03333333       0.00000000       0.00000000 </v>
     <v>       0.00000000       0.03333333       0.00000000 </v>
     <v>       0.00000000       0.00000000       0.03333333 </v>
    </varray>
   </crystal>
   <varray name="positions" >
    <v>       0.49999013       0.49999371       0.50001173 </v>
    <v>       0.58589276       0.52284056       0.53348896 </v>
    <v>       0.66654823       0.57017271       0.55019112 </v>
    <v>       0.58208842       0.58835788       0.45222815 </v>
    <v>       0.50945204       0.59167503       0.51305209 </v>
    <v>       0.65596541       0.53465971       0.47048455 </v>
    <v>       0.59385142       0.62699605       0.53806138 </v>
    <v>       0.51201537       0.54017741       0.59052942 </v>
    <v>       0.56757746       0.49690131       0.44389480 </v>
    <v>       0.62316511       0.53937536       0.38594223 </v>
    <v>       0.65256689       0.63883614       0.60800686 </v>
    <v>       0.59002673       0.57324039       0.61394202 </v>
    <v>       0.43494046       0.54666536       0.54291560 </v>
    <v>       0.54275747       0.66644039       0.47487961 </v>
   </varray>
  </structure>
  <varray name="forces" >
   <v>      -0.00194714      -0.00374282       0.00491342 </v>
   <v>      -0.00016133       0.00168149      -0.00073406 </v>
   <v>       0.00007837       0.00174387      -0.00045839 </v>
   <v>       0.00317437       0.00076247      -0.00190719 </v>
   <v>       0.00083892      -0.00110381      -0.00147124 </v>
   <v>       0.00027945      -0.00095529      -0.00023007 </v>
   <v>      -0.00026135       0.00075139      -0.00074395 </v>
   <v>      -0.00161629       0.00031895       0.00135398 </v>
   <v>      -0.00103367       0.00055573       0.00226297 </v>
   <v>       0.00168775      -0.00099049      -0.00103435 </v>
   <v>       0.00063573       0.00059861       0.00000468 </v>
   <v>      -0.00072175       0.00004932      -0.00083224 </v>
   <v>      -0.00132452       0.00028979      -0.00045281 </v>
   <v>       0.00037145       0.00004079      -0.00067075 </v>
  </varray>
  <varray name="stress" >
   <v>      -0.06391931       0.00032952      -0.00072048 </v>
   <v>       0.00032952      -0.06384301      -0.00021348 </v>
   <v>      -0.00072047      -0.00021348      -0.06351478 </v>
  </varray>
  <energy>
   <i name="e_fr_energy">    -33.71275967 </i>
   <i name="e_wo_entrp">    -33.71275967 </i>
   <i name="e_0_energy">     -0.00000000 </i>
  </energy>
  <time name="totalsc">   76.04   76.78</time>
 </calculation>
 <calculation>
  <scstep>
   <time name="dav">   12.54   12.63</time>
   <time name="total">   14.54   14.64</time>
   <energy>
    <i name="alphaZ">     13.59528883 </i>
    <i name="ewald">  24976.90844057 </i>
    <i name="hartreedc"> -37288.62457817 </i>
    <i name="XCdc">    197.12990495 </i>
    <i name="pawpsdc">  10476.73645526 </i>
    <i name="pawaedc"> -10176.20555854 </i>
    <i name="eentropy">     -0.00000000 </i>
    <i name="bandstr">  -1197.31649985 </i>
    <i name="atom">  12964.06378724 </i>
    <i name="e_fr_energy">    -33.71275971 </i>
    <i name="e_wo_entrp">    -33.71275971 </i>
    <i name="e_0_energy">    -33.71275971 </i>
   </energy>
  </scstep>
  <scstep>
   <time name="diag">    2.32    2.34</time>
   <time name="diis">    8.69    8.76</time>
   <time name="orth">    0.23    0.23</time>
   <time name="total">   13.26   13.36</time>
   <energy>
    <i name="e_fr_energy">    -33.71276059 </i>
    <i name="e_wo_entrp">    -33.71276059 </i>
    <i name="e_0_energy">    -33.71276059 </i>
   </energy>
  </scstep>
  <scstep>
   <time name="diag">    2.32    2.34</time>
   <time name="diis">    6.62    6.68</time>
   <time name="orth">    0.23    0.23</time>
   <time name="total">   11.19   11.28</time>
   <energy>
    <i name="e_fr_energy">    -33.71276099 </i>
    <i name="e_wo_entrp">    -33.71276099 </i>
    <i name="e_0_energy">    -33.71276099 </i>
   </energy>
  </scstep>
  <scstep>
   <time name="diag">    2.32    2.34</time>
   <time name="diis">    6.69    6.74</time>
   <time name="orth">    0.23    0.23</time>
   <time name="total">   11.26   11.35</time>
   <energy>
    <i name="e_fr_energy">    -33.71276178 </i>
    <i name="e_wo_entrp">    -33.71276178 </i>
    <i name="e_0_energy">    -33.71276178 </i>
   </energy>
  </scstep>
  <scstep>
   <time name="diag">    2.32    2.34</time>
   <time name="diis">    6.69    6.74</time>
   <time name="orth">    0.23    0.23</time>
   <time name="total">   10.22   10.30</time>
   <energy>
    <i name="alphaZ">     13.59528883 </i>
    <i name="ewald">  24976.90844057 </i>
    <i name="hartreedc"> -37288.63056184 </i>
    <i name="XCdc">    197.13001361 </i>
    <i name="pawpsdc">  10476.68532711 </i>
    <i name="pawaedc"> -10176.15232827 </i>
    <i name="eentropy">     -0.00000000 </i>
    <i name="bandstr">  -1197.31272928 </i>
    <i name="atom">  12964.06378724 </i>
    <i name="e_fr_energy">    -33.71276202 </i>
    <i name="e_wo_entrp">    -33.71276202 </i>
    <i name="e_0_energy">    -33.71276202 </i>
   </energy>
  </scstep>
  <structure>
   <crystal>
    <varray name="basis" >
     <v>      30.00000000       0.00000000       0.00000000 </v>
     <v>       0.00000000      30.00000000       0.00000000 </v>
     <v>       0.00000000       0.00000000      30.00000000 </v>
    </varray>
    <i name="volume">  27000.00000000 </i>
    <varray name="rec_basis" >
     <v>       0.03333333       0.00000000       0.00000000 </v>
     <v>       0.00000000       0.03333333       0.00000000 </v>
     <v>       0.00000000       0.00000000       0.03333333 </v>
    </varray>
   </crystal>
   <varray name="positions" >
    <v>       0.49997944       0.49998691       0.50002442 </v>
    <v>       0.58589331       0.52284425       0.53348842 </v>
    <v>       0.66654939       0.57017701       0.55019363 </v>
    <v>       0.58209569       0.58835658       0.45222338 </v>
    <v>       0.50945442       0.59167659       0.51304874 </v>
    <v>       0.65596409       0.53465733       0.47047948 </v>
    <v>       0.59384892       0.62699841       0.53805797 </v>
    <v>       0.51201355       0.54017702       0.59053384 </v>
    <v>       0.56758200       0.49690320       0.44389332 </v>
    <v>       0.62316739       0.53937372       0.38594358 </v>
    <v>       0.65256962       0.63883780       0.60800730 </v>
    <v>       0.59002411       0.57323878       0.61394082 </v>
    <v>       0.43493778       0.54666427       0.54291372 </v>
    <v>       0.54275817       0.66644014       0.47487989 </v>
   </varray>
  </structure>
  <varray name="forces" >
   <v>       0.00267484      -0.00331501       0.00221474 </v>
   <v>      -0.00086825       0.00150306      -0.00121558 </v>
   <v>      -0.00037087       0.00063945      -0.00241563 </v>
   <v>       0.00208343       0.00235925      -0.00095620 </v>
   <v>       0.00036732      -0.00311440      -0.00093327 </v>
   <v>       0.00149528      -0.00042039       0.00273166 </v>
   <v>       0.00102143       0.00015125       0.00056387 </v>
   <v>      -0.00221966       0.00061975       0.00034886 </v>
   <v>      -0.00521949      -0.00011961       0.00540552 </v>
   <v>       0.00212691      -0.00095451      -0.00299264 </v>
   <v>      -0.00042092       0.00018972      -0.00051581 </v>
   <v>       0.00018986       0.00113148      -0.00090001 </v>
   <v>      -0.00126577       0.00106569       0.00016453 </v>
   <v>       0.00040589       0.00026426      -0.00150004 </v>
  </varray>
  <varray name="stress" >
   <v>      -0.06436240       0.00021138      -0.00045362 </v>
   <v>       0.00021137      -0.06401270      -0.00026393 </v>
   <v>      -0.00045363      -0.00026393      -0.06390990 </v>
  </varray>
  <energy>
   <i name="e_fr_energy">    -33.71276202 </i>
   <i name="e_wo_entrp">    -33.71276202 </i>
   <i name="e_0_energy">     -0.00000000 </i>
  </energy>
  <time name="totalsc">   74.81   75.35</time>
  <eigenvalues>
   <array>
    <dimension dim="1">band</dimension>
    <dimension dim="2">kpoint</dimension>
    <dimension dim="3">spin</dimension>
    <field>eigene</field>
    <field>occ</field>
    <set>
     <set comment="spin 1">
      <set comment="kpoint 1">
       <r>  -11.6037    1.0000 </r>
       <r>  -10.5589    1.0000 </r>
       <r>  -10.5577    1.0000 </r>
       <r>  -10.5493    1.0000 </r>
       <r>  -10.0074    1.0000 </r>
       <r>   -9.7803    1.0000 </r>
       <r>   -9.7799    1.0000 </r>
       <r>   -9.5651    1.0000 </r>
       <r>   -9.4896    1.0000 </r>
       <r>   -9.4880    1.0000 </r>
       <r>   -9.3888    1.0000 </r>
       <r>   -9.3869    1.0000 </r>
       <r>   -9.1649    1.0000 </r>
       <r>   -8.9650    1.0000 </r>
       <r>   -8.9620    1.0000 </r>
       <r>   -8.8699    1.0000 </r>
       <r>   -8.8670    1.0000 </r>
       <r>   -8.8409    1.0000 </r>
       <r>   -8.8347    1.0000 </r>
       <r>   -8.6663    1.0000 </r>
       <r>   -8.5295    1.0000 </r>
       <r>   -8.5272    1.0000 </r>
       <r>   -8.4010    1.0000 </r>
       <r>   -8.3765    1.0000 </r>
       <r>   -8.3711    1.0000 </r>
       <r>   -8.2508    1.0000 </r>
       <r>   -8.1446    1.0000 </r>
       <r>   -8.1411    1.0000 </r>
       <r>   -8.0403    1.0000 </r>
       <r>   -8.0385    1.0000 </r>
       <r>   -7.9974    1.0000 </r>
       <r>   -7.9947    1.0000 </r>
       <r>   -7.8691    1.0000 </r>
       <r>   -7.8650    1.0000 </r>
       <r>   -7.8534    1.0000 </r>
       <r>   -7.7268    1.0000 </r>
       <r>   -7.7166    1.0000 </r>
       <r>   -7.7132    1.0000 </r>
       <r>   -7.6825    1.0000 </r>
       <r>   -7.5534    1.0000 </r>
       <r>   -7.5521    1.0000 </r>
       <r>   -7.3072    1.0000 </r>
       <r>   -7.2245    1.0000 </r>
       <r>   -7.2243    1.0000 </r>
       <r>   -7.1851    1.0000 </r>
       <r>   -7.1839    1.0000 </r>
       <r>   -7.1377    1.0000 </r>
       <r>   -7.1354    1.0000 </r>
       <r>   -7.1330    1.0000 </r>
       <r>   -7.1140    1.0000 </r>
       <r>   -7.0086    1.0000 </r>
       <r>   -7.0047    1.0000 </r>
       <r>   -6.9340    1.0000 </r>
       <r>   -6.9315    1.0000 </r>
       <r>   -6.9181    1.0000 </r>
       <r>   -6.8629    1.0000 </r>
       <r>   -6.8100    1.0000 </r>
       <r>   -6.7690    1.0000 </r>
       <r>   -6.7661    1.0000 </r>
       <r>   -6.6970    1.0000 </r>
       <r>   -6.6360    1.0000 </r>
       <r>   -6.6356    1.0000 </r>
       <r>   -6.5732    1.0000 </r>
       <r>   -6.5490    1.0000 </r>
       <r>   -6.5463    1.0000 </r>
       <r>   -6.4694    1.0000 </r>
       <r>   -6.4402    1.0000 </r>
       <r>   -6.4369    1.0000 </r>
       <r>   -6.2925    1.0000 </r>
       <r>   -6.2918    1.0000 </r>
       <r>   -6.2010    1.0000 </r>
       <r>   -6.0995    1.0000 </r>
       <r>   -6.0975    1.0000 </r>
       <r>   -5.9678    1.0000 </r>
       <r>   -5.7890    1.0000 </r>
       <r>   -5.3073    1.0000 </r>
       <r>   -5.3053    1.0000 </r>
       <r>   -4.2344    0.0000 </r>
       <r>   -3.9410    0.0000 </r>
       <r>   -3.9383    0.0000 </r>
       <r>   -3.3729    0.0000 </r>
       <r>   -3.3718    0.0000 </r>
       <r>   -3.1104    0.0000 </r>
       <r>   -2.9797    0.0000 </r>
       <r>   -1.9965    0.0000 </r>
       <r>   -1.6854    0.0000 </r>
       <r>   -1.4313    0.0000 </r>
       <r>   -1.4262    0.0000 </r>
       <r>   -1.1928    0.0000 </r>
       <r>   -1.1168    0.0000 </r>
       <r>   -1.1161    0.0000 </r>
       <r>   -0.9250    0.0000 </r>
       <r>   -0.9229    0.0000 </r>
       <r>   -0.1668    0.0000 </r>
       <r>   -0.1659    0.0000 </r>
       <r>    0.0131    0.0000 </r>
       <r>    0.1618    0.0000 </r>
       <r>    0.1758    0.0000 </r>
       <r>    0.1823    0.0000 </r>
       <r>    0.2129    0.0000 </r>
       <r>    0.2252    0.0000 </r>
       <r>    0.2265    0.0000 </r>
       <r>    0.2605    0.0000 </r>
       <r>    0.2856    0.0000 </r>
       <r>    0.3451    0.0000 </r>
       <r>    0.3497    0.0000 </r>
       <r>    0.3528    0.0000 </r>
       <r>    0.3730    0.0000 </r>
       <r>    0.3762    0.0000 </r>
       <r>    0.3858    0.0000 </r>
       <r>    0.3892    0.0000 </r>
       <r>    0.3946    0.0000 </r>
       <r>    0.3979    0.0000 </r>
       <r>    0.4051    0.0000 </r>
       <r>    0.4570    0.0000 </r>
       <r>    0.4683    0.0000 </r>
       <r>    0.4785    0.0000 </r>
       <r>    0.5308    0.0000 </r>
       <r>    0.5363    0.0000 </r>
       <r>    0.5401    0.0000 </r>
       <r>    0.5428    0.0000 </r>
       <r>    0.5542    0.0000 </r>
       <r>    0.5734    0.0000 </r>
       <r>    0.5952    0.0000 </r>
       <r>    0.6288    0.0000 </r>
       <r>    0.6708    0.0000 </r>
       <r>    0.6840    0.0000 </r>
       <r>    0.7049    0.0000 </r>
       <r>    0.7191    0.0000 </r>
       <r>    0.7316    0.0000 </r>
       <r>    0.7468    0.0000 </r>
       <r>    0.7876    0.0000 </r>
       <r>    0.7971    0.0000 </r>
       <r>    0.7994    0.0000 </r>
       <r>    0.8274    0.0000 </r>
       <r>    0.8399    0.0000 </r>
       <r>    0.8410    0.0000 </r>
       <r>    0.8498    0.0000 </r>
       <r>    0.8533    0.0000 </r>
       <r>    0.8612    0.0000 </r>
       <r>    0.8660    0.0000 </r>
       <r>    0.8700    0.0000 </r>
       <r>    0.8768    0.0000 </r>
       <r>    0.8864    0.0000 </r>
       <r>    0.8902    0.0000 </r>
       <r>    0.8938    0.0000 </r>
       <r>    0.8954    0.0000 </r>
       <r>    0.8965    0.0000 </r>
       <r>    0.8984    0.0000 </r>
       <r>    0.9023    0.0000 </r>
       <r>    0.9036    0.0000 </r>
       <r>    0.9046    0.0000 </r>
       <r>    0.9248    0.0000 </r>
       <r>    0.9503    0.0000 </r>
       <r>    0.9622    0.0000 </r>
       <r>    0.9735    0.0000 </r>
       <r>    0.9745    0.0000 </r>
       <r>    0.9902    0.0000 </r>
       <r>    0.9960    0.0000 </r>
       <r>    1.0111    0.0000 </r>
      </set>
     </set>
     <set comment="spin 2">
      <set comment="kpoint 1">
       <r>  -11.6037    1.0000 </r>
       <r>  -10.5589    1.0000 </r>
       <r>  -10.5577    1.0000 </r>
       <r>  -10.5493    1.0000 </r>
       <r>  -10.0074    1.0000 </r>
       <r>   -9.7803    1.0000 </r>
       <r>   -9.7799    1.0000 </r>
       <r>   -9.5651    1.0000 </r>
       <r>   -9.4896    1.0000 </r>
       <r>   -9.4880    1.0000 </r>
       <r>   -9.3888    1.0000 </r>
       <r>   -9.3869    1.0000 </r>
       <r>   -9.1649    1.0000 </r>
       <r>   -8.9650    1.0000 </r>
       <r>   -8.9620    1.0000 </r>
       <r>   -8.8699    1.0000 </r>
       <r>   -8.8670    1.0000 </r>
       <r>   -8.8409    1.0000 </r>
       <r>   -8.8347    1.0000 </r>
       <r>   -8.6663    1.0000 </r>
       <r>   -8.5295    1.0000 </r>
       <r>   -8.5272    1.0000 </r>
       <r>   -8.4010    1.0000 </r>
       <r>   -8.3765    1.0000 </r>
       <r>   -8.3711    1.0000 </r>
       <r>   -8.2508    1.0000 </r>
       <r>   -8.1446    1.0000 </r>
       <r>   -8.1411    1.0000 </r>
       <r>   -8.0403    1.0000 </r>
       <r>   -8.0385    1.0000 </r>
       <r>   -7.9974    1.0000 </r>
       <r>   -7.9947    1.0000 </r>
       <r>   -7.8691    1.0000 </r>
       <r>   -7.8650    1.0000 </r>
       <r>   -7.8534    1.0000 </r>
       <r>   -7.7268    1.0000 </r>
       <r>   -7.7166    1.0000 </r>
       <r>   -7.7132    1.0000 </r>
       <r>   -7.6825    1.0000 </r>
       <r>   -7.5534    1.0000 </r>
       <r>   -7.5521    1.0000 </r>
       <r>   -7.3072    1.0000 </r>
       <r>   -7.2245    1.0000 </r>
       <r>   -7.2243    1.0000 </r>
       <r>   -7.1851    1.0000 </r>
       <r>   -7.1839    1.0000 </r>
       <r>   -7.1377    1.0000 </r>
       <r>   -7.1354    1.0000 </r>
       <r>   -7.1330    1.0000 </r>
       <r>   -7.1140    1.0000 </r>
       <r>   -7.0086    1.0000 </r>
       <r>   -7.0047    1.0000 </r>
       <r>   -6.9340    1.0000 </r>
       <r>   -6.9315    1.0000 </r>
       <r>   -6.9181    1.0000 </r>
       <r>   -6.8629    1.0000 </r>
       <r>   -6.8100    1.0000 </r>
       <r>   -6.7690    1.0000 </r>
       <r>   -6.7661    1.0000 </r>
       <r>   -6.6970    1.0000 </r>
       <r>   -6.6360    1.0000 </r>
       <r>   -6.6356    1.0000 </r>
       <r>   -6.5732    1.0000 </r>
       <r>   -6.5490    1.0000 </r>
       <r>   -6.5463    1.0000 </r>
       <r>   -6.4694    1.0000 </r>
       <r>   -6.4402    1.0000 </r>
       <r>   -6.4369    1.0000 </r>
       <r>   -6.2925    1.0000 </r>
       <r>   -6.2918    1.0000 </r>
       <r>   -6.2010    1.0000 </r>
       <r>   -6.0995    1.0000 </r>
       <r>   -6.0975    1.0000 </r>
       <r>   -5.9678    1.0000 </r>
       <r>   -5.7890    1.0000 </r>
       <r>   -5.3073    1.0000 </r>
       <r>   -5.3053    1.0000 </r>
       <r>   -4.2344    0.0000 </r>
       <r>   -3.9410    0.0000 </r>
       <r>   -3.9383    0.0000 </r>
       <r>   -3.3729    0.0000 </r>
       <r>   -3.3718    0.0000 </r>
       <r>   -3.1104    0.0000 </r>
       <r>   -2.9797    0.0000 </r>
       <r>   -1.9965    0.0000 </r>
       <r>   -1.6854    0.0000 </r>
       <r>   -1.4313    0.0000 </r>
       <r>   -1.4262    0.0000 </r>
       <r>   -1.1928    0.0000 </r>
       <r>   -1.1168    0.0000 </r>
       <r>   -1.1161    0.0000 </r>
       <r>   -0.9250    0.0000 </r>
       <r>   -0.9229    0.0000 </r>
       <r>   -0.1668    0.0000 </r>
       <r>   -0.1659    0.0000 </r>
       <r>    0.0130    0.0000 </r>
       <r>    0.1619    0.0000 </r>
       <r>    0.1758    0.0000 </r>
       <r>    0.1821    0.0000 </r>
       <r>    0.2132    0.0000 </r>
       <r>    0.2251    0.0000 </r>
       <r>    0.2266    0.0000 </r>
       <r>    0.2609    0.0000 </r>
       <r>    0.2858    0.0000 </r>
       <r>    0.3452    0.0000 </r>
       <r>    0.3500    0.0000 </r>
       <r>    0.3528    0.0000 </r>
       <r>    0.3732    0.0000 </r>
       <r>    0.3762    0.0000 </r>
       <r>    0.3855    0.0000 </r>
       <r>    0.3896    0.0000 </r>
       <r>    0.3950    0.0000 </r>
       <r>    0.3983    0.0000 </r>
       <r>    0.4049    0.0000 </r>
       <r>    0.4575    0.0000 </r>
       <r>    0.4688    0.0000 </r>
       <r>    0.4786    0.0000 </r>
       <r>    0.5309    0.0000 </r>
       <r>    0.5366    0.0000 </r>
       <r>    0.5403    0.0000 </r>
       <r>    0.5432    0.0000 </r>
       <r>    0.5544    0.0000 </r>
       <r>    0.5735    0.0000 </r>
       <r>    0.5953    0.0000 </r>
       <r>    0.6289    0.0000 </r>
       <r>    0.6709    0.0000 </r>
       <r>    0.6840    0.0000 </r>
       <r>    0.7048    0.0000 </r>
       <r>    0.7193    0.0000 </r>
       <r>    0.7318    0.0000 </r>
       <r>    0.7467    0.0000 </r>
       <r>    0.7874    0.0000 </r>
       <r>    0.7973    0.0000 </r>
       <r>    0.7995    0.0000 </r>
       <r>    0.8278    0.0000 </r>
       <r>    0.8400    0.0000 </r>
       <r>    0.8411    0.0000 </r>
       <r>    0.8499    0.0000 </r>
       <r>    0.8534    0.0000 </r>
       <r>    0.8612    0.0000 </r>
       <r>    0.8662    0.0000 </r>
       <r>    0.8701    0.0000 </r>
       <r>    0.8770    0.0000 </r>
       <r>    0.8863    0.0000 </r>
       <r>    0.8905    0.0000 </r>
       <r>    0.8942    0.0000 </r>
       <r>    0.8958    0.0000 </r>
       <r>    0.8968    0.0000 </r>
       <r>    0.8988    0.0000 </r>
       <r>    0.9027    0.0000 </r>
       <r>    0.9040    0.0000 </r>
       <r>    0.9049    0.0000 </r>
       <r>    0.9251    0.0000 </r>
       <r>    0.9503    0.0000 </r>
       <r>    0.9620    0.0000 </r>
       <r>    0.9735    0.0000 </r>
       <r>    0.9745    0.0000 </r>
       <r>    0.9904    0.0000 </r>
       <r>    0.9963    0.0000 </r>
       <r>    1.0110    0.0000 </r>
      </set>
     </set>
    </set>
   </array>
  </eigenvalues>
  <separator name="orbital magnetization" >
   <v name="MAGDIPOLOUT">      0.00000000      0.00000000      0.00000000</v>
  </separator>
  <dos>
   <i name="efermi">     -5.06358938 </i>
   <total>
    <array>
     <dimension dim="1">gridpoints</dimension>
     <dimension dim="2">spin</dimension>
     <field>energy</field>
     <field>total</field>
     <field>integrated</field>
     <set>
      <set comment="spin 1">
       <r>   -12.2344     0.0000     0.0000 </r>
       <r>   -12.1881     0.0000     0.0000 </r>
       <r>   -12.1419     0.0000     0.0000 </r>
       <r>   -12.0956     0.0000     0.0000 </r>
       <r>   -12.0494     0.0000     0.0000 </r>
       <r>   -12.0031     0.0000     0.0000 </r>
       <r>   -11.9569     0.0000     0.0000 </r>
       <r>   -11.9106     0.0000     0.0000 </r>
       <r>   -11.8644     0.0000     0.0000 </r>
       <r>   -11.8181     0.0000     0.0000 </r>
       <r>   -11.7719     0.0000     0.0000 </r>
       <r>   -11.7256     0.0061     0.0003 </r>
       <r>   -11.6794     0.3430     0.0161 </r>
       <r>   -11.6331     4.0301     0.2026 </r>
       <r>   -11.5868    10.3842     0.6829 </r>
       <r>   -11.5406     6.0518     0.9628 </r>
       <r>   -11.4943     0.7831     0.9990 </r>
       <r>   -11.4481     0.0214     1.0000 </r>
       <r>   -11.4018     0.0001     1.0000 </r>
       <r>   -11.3556     0.0000     1.0000 </r>
       <r>   -11.3093     0.0000     1.0000 </r>
       <r>   -11.2631     0.0000     1.0000 </r>
       <r>   -11.2168     0.0000     1.0000 </r>
       <r>   -11.1706     0.0000     1.0000 </r>
       <r>   -11.1243     0.0000     1.0000 </r>
       <r>   -11.0780     0.0000     1.0000 </r>
       <r>   -11.0318     0.0000     1.0000 </r>
       <r>   -10.9855     0.0000     1.0000 </r>
       <r>   -10.9393     0.0000     1.0000 </r>
       <r>   -10.8930     0.0000     1.0000 </r>
       <r>   -10.8468     0.0000     1.0000 </r>
       <r>   -10.8005     0.0000     1.0000 </r>
       <r>   -10.7543     0.0000     1.0000 </r>
       <r>   -10.7080     0.0006     1.0000 </r>
       <r>   -10.6618     0.0898     1.0042 </r>
       <r>   -10.6155     2.8596     1.1364 </r>
       <r>   -10.5693    19.6128     2.0436 </r>
       <r>   -10.5230    30.4869     3.4538 </r>
       <r>   -10.4767    10.9204     3.9589 </r>
       <r>   -10.4305     0.8744     3.9993 </r>
       <r>   -10.3842     0.0149     4.0000 </r>
       <r>   -10.3380     0.0001     4.0000 </r>
       <r>   -10.2917     0.0000     4.0000 </r>
       <r>   -10.2455     0.0000     4.0000 </r>
       <r>   -10.1992     0.0000     4.0000 </r>
       <r>   -10.1530     0.0004     4.0000 </r>
       <r>   -10.1067     0.0533     4.0025 </r>
       <r>   -10.0605     1.3888     4.0667 </r>
       <r>   -10.0142     7.7181     4.4237 </r>
       <r>    -9.9680     9.6002     4.8678 </r>
       <r>    -9.9217     2.6945     4.9924 </r>
       <r>    -9.8754     0.3133     5.0069 </r>
       <r>    -9.8292     3.4100     5.1646 </r>
       <r>    -9.7829    16.6567     5.9350 </r>
       <r>    -9.7367    18.2695     6.7801 </r>
       <r>    -9.6904     4.5157     6.9890 </r>
       <r>    -9.6442     0.5098     7.0125 </r>
       <r>    -9.5979     3.5891     7.1785 </r>
       <r>    -9.5517    11.7784     7.7233 </r>
       <r>    -9.5054    18.8199     8.5938 </r>
       <r>    -9.4592    22.6278     9.6405 </r>
       <r>    -9.4129    17.4153    10.4460 </r>
       <r>    -9.3667    21.6982    11.4496 </r>
       <r>    -9.3204    10.6740    11.9433 </r>
       <r>    -9.2741     1.2186    11.9997 </r>
       <r>    -9.2279     0.8160    12.0374 </r>
       <r>    -9.1816     6.0687    12.3181 </r>
       <r>    -9.1354    10.3797    12.7982 </r>
       <r>    -9.0891     4.0237    12.9844 </r>
       <r>    -9.0429     0.8706    13.0246 </r>
       <r>    -8.9966     7.0270    13.3496 </r>
       <r>    -8.9504    20.7997    14.3117 </r>
       <r>    -8.9041    20.9803    15.2821 </r>
       <r>    -8.8579    32.9209    16.8049 </r>
       <r>    -8.8116    35.1698    18.4316 </r>
       <r>    -8.7654    11.3757    18.9578 </r>
       <r>    -8.7191     2.3546    19.0667 </r>
       <r>    -8.6728     7.7724    19.4262 </r>
       <r>    -8.6266     9.6937    19.8746 </r>
       <r>    -8.5803     5.6099    20.1340 </r>
       <r>    -8.5341    15.9339    20.8710 </r>
       <r>    -8.4878    19.1372    21.7562 </r>
       <r>    -8.4416     8.8853    22.1672 </r>
       <r>    -8.3953    20.3245    23.1073 </r>
       <r>    -8.3491    28.9467    24.4462 </r>
       <r>    -8.3028    12.4650    25.0227 </r>
       <r>    -8.2566     8.9372    25.4361 </r>
       <r>    -8.2103    10.6962    25.9309 </r>
       <r>    -8.1640    13.2200    26.5423 </r>
       <r>    -8.1178    21.7392    27.5479 </r>
       <r>    -8.0715    17.3997    28.3527 </r>
       <r>    -8.0253    29.5235    29.7183 </r>
       <r>    -7.9790    33.8379    31.2834 </r>
       <r>    -7.9328    15.4830    31.9995 </r>
       <r>    -7.8865    16.3337    32.7550 </r>
       <r>    -7.8403    31.1683    34.1967 </r>
       <r>    -7.7940    16.7014    34.9692 </r>
       <r>    -7.7478    14.9298    35.6598 </r>
       <r>    -7.7015    36.5987    37.3526 </r>
       <r>    -7.6553    28.4746    38.6697 </r>
       <r>    -7.6090     9.0784    39.0896 </r>
       <r>    -7.5627    14.8579    39.7768 </r>
       <r>    -7.5165    19.8438    40.6947 </r>
       <r>    -7.4702     6.1768    40.9804 </r>
       <r>    -7.4240     0.4291    41.0002 </r>
       <r>    -7.3777     0.4935    41.0230 </r>
       <r>    -7.3315     4.8767    41.2486 </r>
       <r>    -7.2852    12.4115    41.8227 </r>
       <r>    -7.2390    20.7509    42.7825 </r>
       <r>    -7.1927    39.6641    44.6171 </r>
       <r>    -7.1465    51.5541    47.0017 </r>
       <r>    -7.1002    46.7046    49.1620 </r>
       <r>    -7.0540    20.4008    50.1056 </r>
       <r>    -7.0077    19.6670    51.0153 </r>
       <r>    -6.9614    28.3864    52.3282 </r>
       <r>    -6.9152    35.5756    53.9738 </r>
       <r>    -6.8689    29.3268    55.3302 </r>
       <r>    -6.8227    21.9574    56.3459 </r>
       <r>    -6.7764    27.8886    57.6358 </r>
       <r>    -6.7302    26.8712    58.8787 </r>
       <r>    -6.6839    19.9280    59.8005 </r>
       <r>    -6.6377    24.9943    60.9565 </r>
       <r>    -6.5914    29.2427    62.3091 </r>
       <r>    -6.5452    33.3359    63.8511 </r>
       <r>    -6.4989    27.0888    65.1040 </r>
       <r>    -6.4527    27.2587    66.3648 </r>
       <r>    -6.4064    26.7089    67.6002 </r>
       <r>    -6.3601     9.2208    68.0267 </r>
       <r>    -6.3139    11.0714    68.5388 </r>
       <r>    -6.2676    21.6786    69.5416 </r>
       <r>    -6.2214    15.0417    70.2373 </r>
       <r>    -6.1751    12.1036    70.7971 </r>
       <r>    -6.1289    12.3746    71.3695 </r>
       <r>    -6.0826    21.1193    72.3464 </r>
       <r>    -6.0364    12.9891    72.9472 </r>
       <r>    -5.9901     6.8003    73.2617 </r>
       <r>    -5.9439    10.5730    73.7507 </r>
       <r>    -5.8976     4.9024    73.9775 </r>
       <r>    -5.8514     1.3148    74.0383 </r>
       <r>    -5.8051     6.1767    74.3240 </r>
       <r>    -5.7588    10.3519    74.8028 </r>
       <r>    -5.7126     3.9304    74.9846 </r>
       <r>    -5.6663     0.3270    74.9997 </r>
       <r>    -5.6201     0.0056    75.0000 </r>
       <r>    -5.5738     0.0000    75.0000 </r>
       <r>    -5.5276     0.0000    75.0000 </r>
       <r>    -5.4813     0.0000    75.0000 </r>
       <r>    -5.4351     0.0059    75.0003 </r>
       <r>    -5.3888     0.4188    75.0196 </r>
       <r>    -5.3426     6.1739    75.3052 </r>
       <r>    -5.2963    19.8291    76.2224 </r>
       <r>    -5.2501    14.3949    76.8882 </r>
       <r>    -5.2038     2.3357    76.9962 </r>
       <r>    -5.1575     0.0806    77.0000 </r>
       <r>    -5.1113     0.0006    77.0000 </r>
       <r>    -5.0650     0.0000    77.0000 </r>
       <r>    -5.0188     0.0000    77.0000 </r>
       <r>    -4.9725     0.0000    77.0000 </r>
       <r>    -4.9263     0.0000    77.0000 </r>
       <r>    -4.8800     0.0000    77.0000 </r>
       <r>    -4.8338     0.0000    77.0000 </r>
       <r>    -4.7875     0.0000    77.0000 </r>
       <r>    -4.7413     0.0000    77.0000 </r>
       <r>    -4.6950     0.0000    77.0000 </r>
       <r>    -4.6487     0.0000    77.0000 </r>
       <r>    -4.6025     0.0000    77.0000 </r>
       <r>    -4.5562     0.0000    77.0000 </r>
       <r>    -4.5100     0.0000    77.0000 </r>
       <r>    -4.4637     0.0000    77.0000 </r>
       <r>    -4.4175     0.0000    77.0000 </r>
       <r>    -4.3712     0.0012    77.0001 </r>
       <r>    -4.3250     0.1115    77.0052 </r>
       <r>    -4.2787     2.1586    77.1051 </r>
       <r>    -4.2325     9.0127    77.5219 </r>
       <r>    -4.1862     8.4679    77.9136 </r>
       <r>    -4.1400     1.7864    77.9962 </r>
       <r>    -4.0937     0.0812    78.0000 </r>
       <r>    -4.0474     0.0503    78.0023 </r>
       <r>    -4.0012     1.7182    78.0818 </r>
       <r>    -3.9549    12.6070    78.6649 </r>
       <r>    -3.9087    20.6050    79.6180 </r>
       <r>    -3.8624     7.6293    79.9709 </r>
       <r>    -3.8162     0.6197    79.9995 </r>
       <r>    -3.7699     0.0105    80.0000 </r>
       <r>    -3.7237     0.0000    80.0000 </r>
       <r>    -3.6774     0.0000    80.0000 </r>
       <r>    -3.6312     0.0000    80.0000 </r>
       <r>    -3.5849     0.0000    80.0000 </r>
       <r>    -3.5387     0.0001    80.0000 </r>
       <r>    -3.4924     0.0148    80.0007 </r>
       <r>    -3.4461     0.7835    80.0369 </r>
       <r>    -3.3999     8.6343    80.4363 </r>
       <r>    -3.3536    20.9138    81.4036 </r>
       <r>    -3.3074    11.4640    81.9339 </r>
       <r>    -3.2611     1.3934    81.9984 </r>
       <r>    -3.2149     0.0693    82.0016 </r>
       <r>    -3.1686     1.0446    82.0499 </r>
       <r>    -3.1224     6.8729    82.3678 </r>
       <r>    -3.0761    10.1503    82.8373 </r>
       <r>    -3.0299     4.9548    83.0664 </r>
       <r>    -2.9836     8.4071    83.4553 </r>
       <r>    -2.9374     9.2733    83.8842 </r>
       <r>    -2.8911     2.3704    83.9939 </r>
       <r>    -2.8448     0.1310    83.9999 </r>
       <r>    -2.7986     0.0015    84.0000 </r>
       <r>    -2.7523     0.0000    84.0000 </r>
       <r>    -2.7061     0.0000    84.0000 </r>
       <r>    -2.6598     0.0000    84.0000 </r>
       <r>    -2.6136     0.0000    84.0000 </r>
       <r>    -2.5673     0.0000    84.0000 </r>
       <r>    -2.5211     0.0000    84.0000 </r>
       <r>    -2.4748     0.0000    84.0000 </r>
       <r>    -2.4286     0.0000    84.0000 </r>
       <r>    -2.3823     0.0000    84.0000 </r>
       <r>    -2.3361     0.0000    84.0000 </r>
       <r>    -2.2898     0.0000    84.0000 </r>
       <r>    -2.2435     0.0000    84.0000 </r>
       <r>    -2.1973     0.0000    84.0000 </r>
       <r>    -2.1510     0.0001    84.0000 </r>
       <r>    -2.1048     0.0236    84.0011 </r>
       <r>    -2.0585     0.8337    84.0397 </r>
       <r>    -2.0123     6.2265    84.3277 </r>
       <r>    -1.9660    10.3334    84.8056 </r>
       <r>    -1.9198     3.8782    84.9850 </r>
       <r>    -1.8735     0.3188    84.9997 </r>
       <r>    -1.8273     0.0061    85.0000 </r>
       <r>    -1.7810     0.0734    85.0034 </r>
       <r>    -1.7348     1.6853    85.0814 </r>
       <r>    -1.6885     8.2958    85.4651 </r>
       <r>    -1.6422     9.1624    85.8889 </r>
       <r>    -1.5960     2.2785    85.9943 </r>
       <r>    -1.5497     0.1362    86.0006 </r>
       <r>    -1.5035     0.7437    86.0350 </r>
       <r>    -1.4572     8.3575    86.4215 </r>
       <r>    -1.4110    20.8015    87.3837 </r>
       <r>    -1.3647    11.7909    87.9291 </r>
       <r>    -1.3185     1.4972    87.9983 </r>
       <r>    -1.2722     0.3030    88.0123 </r>
       <r>    -1.2260     3.5388    88.1760 </r>
       <r>    -1.1797    11.7144    88.7179 </r>
       <r>    -1.1334    18.7178    89.5836 </r>
       <r>    -1.0872    21.7633    90.5903 </r>
       <r>    -1.0409     8.1702    90.9682 </r>
       <r>    -0.9947     1.6584    91.0449 </r>
       <r>    -0.9484     9.5903    91.4885 </r>
       <r>    -0.9022    21.0346    92.4614 </r>
       <r>    -0.8559    10.4655    92.9455 </r>
       <r>    -0.8097     1.1522    92.9988 </r>
       <r>    -0.7634     0.0266    93.0000 </r>
       <r>    -0.7172     0.0001    93.0000 </r>
       <r>    -0.6709     0.0000    93.0000 </r>
       <r>    -0.6247     0.0000    93.0000 </r>
       <r>    -0.5784     0.0000    93.0000 </r>
       <r>    -0.5321     0.0000    93.0000 </r>
       <r>    -0.4859     0.0000    93.0000 </r>
       <r>    -0.4396     0.0000    93.0000 </r>
       <r>    -0.3934     0.0000    93.0000 </r>
       <r>    -0.3471     0.0000    93.0000 </r>
       <r>    -0.3009     0.0031    93.0001 </r>
       <r>    -0.2546     0.2674    93.0125 </r>
       <r>    -0.2084     4.7962    93.2344 </r>
       <r>    -0.1621    18.6000    94.0947 </r>
       <r>    -0.1159    16.2559    94.8466 </r>
       <r>    -0.0696     3.3912    95.0034 </r>
       <r>    -0.0234     3.1972    95.1513 </r>
       <r>     0.0229     9.9042    95.6094 </r>
       <r>     0.0692     7.3630    95.9500 </r>
       <r>     0.1154     4.7639    96.1703 </r>
       <r>     0.1617    23.7302    97.2680 </r>
       <r>     0.2079    50.9868    99.6263 </r>
       <r>     0.2542    52.2895   102.0449 </r>
       <r>     0.3004    38.0192   103.8034 </r>
       <r>     0.3467    53.0256   106.2561 </r>
       <r>     0.3929    92.6190   110.5401 </r>
       <r>     0.4392    75.5771   114.0358 </r>
       <r>     0.4854    49.9034   116.3440 </r>
       <r>     0.5317    58.3260   119.0419 </r>
       <r>     0.5779    67.8030   122.1780 </r>
       <r>     0.6242    45.1966   124.2685 </r>
       <r>     0.6705    37.7488   126.0146 </r>
       <r>     0.7167    51.6293   128.4026 </r>
       <r>     0.7630    55.2388   130.9576 </r>
       <r>     0.8092    67.6493   134.0867 </r>
       <r>     0.8555   120.3138   139.6517 </r>
       <r>     0.9017   168.8311   147.4608 </r>
       <r>     0.9480   130.8427   153.5128 </r>
       <r>     0.9942    84.7065   157.4308 </r>
       <r>     1.0405    45.5186   159.5362 </r>
       <r>     1.0867     9.4620   159.9739 </r>
       <r>     1.1330     0.5573   159.9996 </r>
       <r>     1.1792     0.0080   160.0000 </r>
       <r>     1.2255     0.0000   160.0000 </r>
       <r>     1.2718     0.0000   160.0000 </r>
       <r>     1.3180     0.0000   160.0000 </r>
       <r>     1.3643     0.0000   160.0000 </r>
       <r>     1.4105     0.0000   160.0000 </r>
       <r>     1.4568     0.0000   160.0000 </r>
       <r>     1.5030     0.0000   160.0000 </r>
       <r>     1.5493     0.0000   160.0000 </r>
       <r>     1.5955     0.0000   160.0000 </r>
       <r>     1.6418     0.0000   160.0000 </r>
      </set>
      <set comment="spin 2">
       <r>   -12.2344     0.0000     0.0000 </r>
       <r>   -12.1881     0.0000     0.0000 </r>
       <r>   -12.1419     0.0000     0.0000 </r>
       <r>   -12.0956     0.0000     0.0000 </r>
       <r>   -12.0494     0.0000     0.0000 </r>
       <r>   -12.0031     0.0000     0.0000 </r>
       <r>   -11.9569     0.0000     0.0000 </r>
       <r>   -11.9106     0.0000     0.0000 </r>
       <r>   -11.8644     0.0000     0.0000 </r>
       <r>   -11.8181     0.0000     0.0000 </r>
       <r>   -11.7719     0.0000     0.0000 </r>
       <r>   -11.7256     0.0061     0.0003 </r>
       <r>   -11.6794     0.3430     0.0161 </r>
       <r>   -11.6331     4.0301     0.2026 </r>
       <r>   -11.5868    10.3842     0.6829 </r>
       <r>   -11.5406     6.0518     0.9628 </r>
       <r>   -11.4943     0.7831     0.9990 </r>
       <r>   -11.4481     0.0214     1.0000 </r>
       <r>   -11.4018     0.0001     1.0000 </r>
       <r>   -11.3556     0.0000     1.0000 </r>
       <r>   -11.3093     0.0000     1.0000 </r>
       <r>   -11.2631     0.0000     1.0000 </r>
       <r>   -11.2168     0.0000     1.0000 </r>
       <r>   -11.1706     0.0000     1.0000 </r>
       <r>   -11.1243     0.0000     1.0000 </r>
       <r>   -11.0780     0.0000     1.0000 </r>
       <r>   -11.0318     0.0000     1.0000 </r>
       <r>   -10.9855     0.0000     1.0000 </r>
       <r>   -10.9393     0.0000     1.0000 </r>
       <r>   -10.8930     0.0000     1.0000 </r>
       <r>   -10.8468     0.0000     1.0000 </r>
       <r>   -10.8005     0.0000     1.0000 </r>
       <r>   -10.7543     0.0000     1.0000 </r>
       <r>   -10.7080     0.0006     1.0000 </r>
       <r>   -10.6618     0.0898     1.0042 </r>
       <r>   -10.6155     2.8596     1.1364 </r>
       <r>   -10.5693    19.6128     2.0436 </r>
       <r>   -10.5230    30.4869     3.4538 </r>
       <r>   -10.4767    10.9204     3.9589 </r>
       <r>   -10.4305     0.8744     3.9993 </r>
       <r>   -10.3842     0.0149     4.0000 </r>
       <r>   -10.3380     0.0001     4.0000 </r>
       <r>   -10.2917     0.0000     4.0000 </r>
       <r>   -10.2455     0.0000     4.0000 </r>
       <r>   -10.1992     0.0000     4.0000 </r>
       <r>   -10.1530     0.0004     4.0000 </r>
       <r>   -10.1067     0.0533     4.0025 </r>
       <r>   -10.0605     1.3888     4.0667 </r>
       <r>   -10.0142     7.7181     4.4237 </r>
       <r>    -9.9680     9.6002     4.8678 </r>
       <r>    -9.9217     2.6945     4.9924 </r>
       <r>    -9.8754     0.3133     5.0069 </r>
       <r>    -9.8292     3.4100     5.1646 </r>
       <r>    -9.7829    16.6567     5.9350 </r>
       <r>    -9.7367    18.2695     6.7801 </r>
       <r>    -9.6904     4.5157     6.9890 </r>
       <r>    -9.6442     0.5098     7.0125 </r>
       <r>    -9.5979     3.5891     7.1785 </r>
       <r>    -9.5517    11.7784     7.7233 </r>
       <r>    -9.5054    18.8199     8.5938 </r>
       <r>    -9.4592    22.6278     9.6405 </r>
       <r>    -9.4129    17.4153    10.4460 </r>
       <r>    -9.3667    21.6982    11.4496 </r>
       <r>    -9.3204    10.6740    11.9433 </r>
       <r>    -9.2741     1.2186    11.9997 </r>
       <r>    -9.2279     0.8160    12.0374 </r>
       <r>    -9.1816     6.0687    12.3181 </r>
       <r>    -9.1354    10.3797    12.7982 </r>
       <r>    -9.0891     4.0237    12.9844 </r>
       <r>    -9.0429     0.8706    13.0246 </r>
       <r>    -8.9966     7.0270    13.3496 </r>
       <r>    -8.9504    20.7997    14.3117 </r>
       <r>    -8.9041    20.9803    15.2821 </r>
       <r>    -8.8579    32.9209    16.8049 </r>
       <r>    -8.8116    35.1698    18.4316 </r>
[...]
        <r>  0.0001  0.0001  0.0000  0.0001  0.0000  0.0000  0.0000  0.0000  0.0000 </r>
        <r>  0.0000  0.0001  0.0002  0.0000  0.0000  0.0000  0.0000  0.0000  0.0000 </r>
        <r>  0.0000  0.0000  0.0000  0.0000  0.0000  0.0000  0.0000  0.0000  0.0000 </r>
       </set>
       <set comment="band 147">
        <r>  0.0000  0.0000  0.0000  0.0000  0.0000  0.0000  0.0000  0.0001  0.0001 </r>
        <r>  0.0000  0.0000  0.0000  0.0000  0.0000  0.0000  0.0000  0.0000  0.0000 </r>
        <r>  0.0003  0.0001  0.0001  0.0001  0.0000  0.0000  0.0000  0.0000  0.0000 </r>
        <r>  0.0001  0.0002  0.0000  0.0000  0.0000  0.0000  0.0000  0.0000  0.0000 </r>
        <r>  0.0000  0.0001  0.0000  0.0000  0.0000  0.0000  0.0000  0.0000  0.0001 </r>
        <r>  0.0000  0.0001  0.0001  0.0000  0.0000  0.0000  0.0002  0.0000  0.0000 </r>
        <r>  0.0000  0.0000  0.0000  0.0001  0.0000  0.0000  0.0001  0.0000  0.0000 </r>
        <r>  0.0000  0.0000  0.0000  0.0000  0.0000  0.0000  0.0000  0.0001  0.0001 </r>
        <r>  0.0000  0.0000  0.0000  0.0000  0.0000  0.0000  0.0000  0.0001  0.0002 </r>
        <r>  0.0004  0.0005  0.0000  0.0003  0.0000  0.0000  0.0000  0.0000  0.0000 </r>
        <r>  0.0000  0.0000  0.0001  0.0000  0.0001  0.0000  0.0000  0.0000  0.0000 </r>
        <r>  0.0002  0.0001  0.0000  0.0000  0.0000  0.0000  0.0000  0.0000  0.0000 </r>
        <r>  0.0003  0.0002  0.0000  0.0000  0.0000  0.0000  0.0000  0.0000  0.0000 </r>
        <r>  0.0002  0.0001  0.0003  0.0007  0.0000  0.0000  0.0000  0.0000  0.0000 </r>
       </set>
       <set comment="band 148">
        <r>  0.0000  0.0001  0.0000  0.0000  0.0000  0.0000  0.0000  0.0000  0.0000 </r>
        <r>  0.0000  0.0000  0.0000  0.0000  0.0000  0.0000  0.0000  0.0000  0.0000 </r>
        <r>  0.0000  0.0001  0.0002  0.0000  0.0000  0.0000  0.0000  0.0000  0.0000 </r>
        <r>  0.0000  0.0001  0.0000  0.0000  0.0000  0.0000  0.0000  0.0000  0.0000 </r>
        <r>  0.0000  0.0001  0.0000  0.0001  0.0000  0.0000  0.0000  0.0000  0.0000 </r>
        <r>  0.0000  0.0003  0.0000  0.0000  0.0000  0.0000  0.0000  0.0000  0.0000 </r>
        <r>  0.0000  0.0000  0.0002  0.0002  0.0000  0.0000  0.0000  0.0000  0.0000 </r>
        <r>  0.0001  0.0002  0.0000  0.0000  0.0000  0.0000  0.0000  0.0000  0.0000 </r>
        <r>  0.0000  0.0002  0.0000  0.0000  0.0000  0.0000  0.0000  0.0000  0.0000 </r>
        <r>  0.0001  0.0000  0.0000  0.0001  0.0000  0.0001  0.0000  0.0000  0.0000 </r>
        <r>  0.0000  0.0000  0.0001  0.0001  0.0000  0.0000  0.0000  0.0000  0.0000 </r>
        <r>  0.0000  0.0001  0.0000  0.0001  0.0000  0.0000  0.0000  0.0000  0.0000 </r>
        <r>  0.0000  0.0001  0.0000  0.0000  0.0000  0.0000  0.0000  0.0000  0.0000 </r>
        <r>  0.0009  0.0003  0.0002  0.0000  0.0000  0.0000  0.0000  0.0000  0.0000 </r>
       </set>
       <set comment="band 149">
        <r>  0.0000  0.0001  0.0000  0.0000  0.0000  0.0000  0.0000  0.0000  0.0000 </r>
        <r>  0.0000  0.0000  0.0000  0.0000  0.0000  0.0000  0.0000  0.0000  0.0000 </r>
        <r>  0.0001  0.0001  0.0002  0.0000  0.0000  0.0000  0.0000  0.0000  0.0000 </r>
        <r>  0.0000  0.0002  0.0001  0.0000  0.0000  0.0000  0.0000  0.0000  0.0000 </r>
        <r>  0.0000  0.0002  0.0000  0.0001  0.0000  0.0000  0.0000  0.0000  0.0000 </r>
        <r>  0.0000  0.0001  0.0000  0.0000  0.0000  0.0000  0.0000  0.0000  0.0000 </r>
        <r>  0.0000  0.0000  0.0002  0.0002  0.0000  0.0000  0.0000  0.0000  0.0000 </r>
        <r>  0.0000  0.0001  0.0001  0.0000  0.0000  0.0000  0.0000  0.0000  0.0000 </r>
        <r>  0.0001  0.0001  0.0000  0.0000  0.0000  0.0000  0.0000  0.0000  0.0000 </r>
        <r>  0.0000  0.0000  0.0000  0.0002  0.0000  0.0000  0.0000  0.0000  0.0000 </r>
        <r>  0.0002  0.0001  0.0002  0.0001  0.0000  0.0000  0.0000  0.0000  0.0000 </r>
        <r>  0.0001  0.0001  0.0000  0.0001  0.0000  0.0000  0.0000  0.0000  0.0000 </r>
        <r>  0.0000  0.0001  0.0001  0.0001  0.0000  0.0000  0.0000  0.0000  0.0000 </r>
        <r>  0.0014  0.0005  0.0002  0.0000  0.0000  0.0000  0.0000  0.0000  0.0000 </r>
       </set>
       <set comment="band 150">
        <r>  0.0000  0.0001  0.0000  0.0001  0.0000  0.0000  0.0000  0.0001  0.0001 </r>
        <r>  0.0000  0.0000  0.0000  0.0001  0.0000  0.0000  0.0001  0.0000  0.0000 </r>
        <r>  0.0002  0.0000  0.0000  0.0000  0.0000  0.0000  0.0000  0.0000  0.0000 </r>
        <r>  0.0001  0.0001  0.0000  0.0000  0.0000  0.0000  0.0001  0.0000  0.0000 </r>
        <r>  0.0001  0.0003  0.0000  0.0000  0.0000  0.0000  0.0000  0.0000  0.0000 </r>
        <r>  0.0000  0.0001  0.0001  0.0000  0.0000  0.0000  0.0002  0.0000  0.0000 </r>
        <r>  0.0000  0.0000  0.0000  0.0000  0.0000  0.0000  0.0001  0.0000  0.0000 </r>
        <r>  0.0000  0.0000  0.0000  0.0001  0.0000  0.0000  0.0000  0.0001  0.0001 </r>
        <r>  0.0000  0.0000  0.0001  0.0000  0.0000  0.0000  0.0000  0.0001  0.0001 </r>
        <r>  0.0006  0.0002  0.0000  0.0001  0.0000  0.0000  0.0000  0.0000  0.0000 </r>
        <r>  0.0000  0.0000  0.0001  0.0002  0.0001  0.0000  0.0000  0.0000  0.0000 </r>
        <r>  0.0003  0.0001  0.0000  0.0000  0.0000  0.0000  0.0000  0.0000  0.0000 </r>
        <r>  0.0004  0.0003  0.0001  0.0000  0.0000  0.0000  0.0000  0.0000  0.0000 </r>
        <r>  0.0001  0.0000  0.0005  0.0004  0.0000  0.0000  0.0000  0.0000  0.0000 </r>
       </set>
       <set comment="band 151">
        <r>  0.0000  0.0001  0.0000  0.0001  0.0001  0.0000  0.0000  0.0000  0.0001 </r>
        <r>  0.0000  0.0000  0.0000  0.0000  0.0000  0.0000  0.0000  0.0000  0.0000 </r>
        <r>  0.0000  0.0000  0.0001  0.0001  0.0000  0.0000  0.0000  0.0000  0.0000 </r>
        <r>  0.0001  0.0000  0.0000  0.0001  0.0000  0.0000  0.0000  0.0000  0.0000 </r>
        <r>  0.0001  0.0000  0.0001  0.0000  0.0000  0.0000  0.0000  0.0000  0.0000 </r>
        <r>  0.0002  0.0001  0.0001  0.0001  0.0000  0.0000  0.0000  0.0000  0.0000 </r>
        <r>  0.0000  0.0000  0.0001  0.0000  0.0000  0.0000  0.0000  0.0000  0.0000 </r>
        <r>  0.0001  0.0000  0.0001  0.0000  0.0000  0.0000  0.0000  0.0000  0.0000 </r>
        <r>  0.0000  0.0001  0.0001  0.0000  0.0000  0.0000  0.0001  0.0000  0.0000 </r>
        <r>  0.0001  0.0002  0.0001  0.0002  0.0000  0.0000  0.0000  0.0000  0.0000 </r>
        <r>  0.0000  0.0000  0.0000  0.0000  0.0000  0.0000  0.0000  0.0000  0.0000 </r>
        <r>  0.0000  0.0000  0.0001  0.0001  0.0000  0.0000  0.0000  0.0000  0.0000 </r>
        <r>  0.0002  0.0002  0.0003  0.0000  0.0000  0.0000  0.0000  0.0000  0.0000 </r>
        <r>  0.0000  0.0000  0.0000  0.0002  0.0000  0.0000  0.0000  0.0000  0.0000 </r>
       </set>
       <set comment="band 152">
        <r>  0.0001  0.0004  0.0000  0.0000  0.0001  0.0000  0.0000  0.0000  0.0001 </r>
        <r>  0.0000  0.0000  0.0000  0.0000  0.0000  0.0000  0.0000  0.0000  0.0000 </r>
        <r>  0.0001  0.0000  0.0001  0.0001  0.0000  0.0000  0.0000  0.0000  0.0000 </r>
        <r>  0.0000  0.0000  0.0000  0.0002  0.0000  0.0000  0.0000  0.0001  0.0001 </r>
        <r>  0.0000  0.0000  0.0002  0.0000  0.0000  0.0000  0.0000  0.0001  0.0000 </r>
        <r>  0.0002  0.0002  0.0001  0.0001  0.0000  0.0000  0.0000  0.0000  0.0000 </r>
        <r>  0.0000  0.0000  0.0001  0.0000  0.0000  0.0000  0.0001  0.0000  0.0000 </r>
        <r>  0.0001  0.0001  0.0001  0.0001  0.0000  0.0000  0.0000  0.0000  0.0000 </r>
        <r>  0.0001  0.0003  0.0001  0.0000  0.0000  0.0001  0.0000  0.0000  0.0000 </r>
        <r>  0.0000  0.0002  0.0001  0.0003  0.0000  0.0000  0.0000  0.0000  0.0000 </r>
        <r>  0.0000  0.0000  0.0000  0.0001  0.0001  0.0000  0.0000  0.0000  0.0000 </r>
        <r>  0.0001  0.0001  0.0001  0.0001  0.0000  0.0000  0.0000  0.0000  0.0000 </r>
        <r>  0.0000  0.0002  0.0004  0.0000  0.0000  0.0000  0.0000  0.0000  0.0000 </r>
        <r>  0.0001  0.0000  0.0000  0.0001  0.0000  0.0000  0.0000  0.0000  0.0000 </r>
       </set>
       <set comment="band 153">
        <r>  0.0005  0.0000  0.0000  0.0000  0.0001  0.0000  0.0000  0.0000  0.0000 </r>
        <r>  0.0007  0.0002  0.0000  0.0000  0.0001  0.0001  0.0000  0.0000  0.0000 </r>
        <r>  0.0000  0.0001  0.0001  0.0004  0.0002  0.0000  0.0001  0.0000  0.0001 </r>
        <r>  0.0000  0.0000  0.0002  0.0000  0.0000  0.0000  0.0003  0.0000  0.0001 </r>
        <r>  0.0004  0.0000  0.0000  0.0002  0.0001  0.0000  0.0003  0.0001  0.0001 </r>
        <r>  0.0001  0.0003  0.0002  0.0001  0.0001  0.0000  0.0001  0.0000  0.0000 </r>
        <r>  0.0020  0.0011  0.0001  0.0000  0.0002  0.0002  0.0000  0.0001  0.0000 </r>
        <r>  0.0000  0.0004  0.0002  0.0001  0.0000  0.0000  0.0000  0.0000  0.0000 </r>
        <r>  0.0003  0.0000  0.0000  0.0000  0.0000  0.0001  0.0000  0.0000  0.0000 </r>
        <r>  0.0001  0.0005  0.0001  0.0006  0.0000  0.0001  0.0000  0.0000  0.0000 </r>
        <r>  0.0008  0.0002  0.0001  0.0000  0.0001  0.0002  0.0001  0.0003  0.0001 </r>
        <r>  0.0000  0.0002  0.0006  0.0001  0.0000  0.0001  0.0001  0.0000  0.0000 </r>
        <r>  0.0002  0.0006  0.0007  0.0000  0.0002  0.0000  0.0000  0.0000  0.0000 </r>
        <r>  0.0001  0.0001  0.0001  0.0001  0.0000  0.0000  0.0000  0.0000  0.0000 </r>
       </set>
       <set comment="band 154">
        <r>  0.0002  0.0026  0.0000  0.0002  0.0000  0.0002  0.0000  0.0001  0.0001 </r>
        <r>  0.0000  0.0000  0.0000  0.0000  0.0003  0.0001  0.0001  0.0000  0.0000 </r>
        <r>  0.0005  0.0006  0.0000  0.0002  0.0000  0.0000  0.0000  0.0000  0.0000 </r>
        <r>  0.0009  0.0008  0.0000  0.0000  0.0000  0.0000  0.0004  0.0003  0.0002 </r>
        <r>  0.0006  0.0009  0.0001  0.0002  0.0000  0.0000  0.0000  0.0002  0.0004 </r>
        <r>  0.0000  0.0003  0.0000  0.0001  0.0000  0.0001  0.0001  0.0001  0.0002 </r>
        <r>  0.0000  0.0002  0.0001  0.0002  0.0000  0.0000  0.0001  0.0000  0.0000 </r>
        <r>  0.0000  0.0001  0.0001  0.0000  0.0001  0.0000  0.0001  0.0000  0.0001 </r>
        <r>  0.0000  0.0025  0.0000  0.0001  0.0002  0.0000  0.0000  0.0003  0.0000 </r>
        <r>  0.0000  0.0019  0.0002  0.0000  0.0001  0.0005  0.0000  0.0002  0.0001 </r>
        <r>  0.0000  0.0001  0.0001  0.0003  0.0000  0.0000  0.0000  0.0000  0.0000 </r>
        <r>  0.0000  0.0001  0.0000  0.0000  0.0000  0.0000  0.0001  0.0000  0.0000 </r>
        <r>  0.0000  0.0028  0.0000  0.0001  0.0002  0.0000  0.0000  0.0001  0.0001 </r>
        <r>  0.0000  0.0000  0.0000  0.0001  0.0001  0.0001  0.0000  0.0000  0.0000 </r>
       </set>
       <set comment="band 155">
        <r>  0.0002  0.0002  0.0000  0.0001  0.0001  0.0000  0.0000  0.0001  0.0000 </r>
        <r>  0.0001  0.0001  0.0000  0.0000  0.0000  0.0002  0.0000  0.0000  0.0002 </r>
        <r>  0.0004  0.0000  0.0000  0.0001  0.0000  0.0001  0.0001  0.0000  0.0001 </r>
        <r>  0.0000  0.0002  0.0003  0.0000  0.0000  0.0001  0.0000  0.0000  0.0000 </r>
        <r>  0.0000  0.0000  0.0000  0.0001  0.0001  0.0000  0.0001  0.0000  0.0001 </r>
        <r>  0.0001  0.0001  0.0003  0.0001  0.0000  0.0000  0.0000  0.0000  0.0000 </r>
        <r>  0.0000  0.0006  0.0002  0.0000  0.0001  0.0002  0.0000  0.0000  0.0000 </r>
        <r>  0.0000  0.0000  0.0000  0.0002  0.0000  0.0000  0.0000  0.0002  0.0001 </r>
        <r>  0.0001  0.0002  0.0001  0.0000  0.0000  0.0000  0.0000  0.0000  0.0000 </r>
        <r>  0.0001  0.0008  0.0002  0.0001  0.0000  0.0000  0.0000  0.0000  0.0000 </r>
        <r>  0.0001  0.0000  0.0000  0.0002  0.0000  0.0000  0.0000  0.0000  0.0000 </r>
        <r>  0.0012  0.0002  0.0002  0.0000  0.0000  0.0000  0.0000  0.0000  0.0000 </r>
        <r>  0.0003  0.0000  0.0001  0.0000  0.0000  0.0000  0.0000  0.0001  0.0000 </r>
        <r>  0.0005  0.0000  0.0007  0.0003  0.0000  0.0001  0.0000  0.0000  0.0000 </r>
       </set>
       <set comment="band 156">
        <r>  0.0002  0.0000  0.0000  0.0001  0.0000  0.0000  0.0000  0.0001  0.0001 </r>
        <r>  0.0008  0.0001  0.0001  0.0000  0.0000  0.0000  0.0000  0.0000  0.0001 </r>
        <r>  0.0007  0.0008  0.0000  0.0000  0.0000  0.0000  0.0001  0.0000  0.0000 </r>
        <r>  0.0007  0.0001  0.0001  0.0001  0.0000  0.0000  0.0000  0.0001  0.0000 </r>
        <r>  0.0025  0.0000  0.0003  0.0000  0.0000  0.0001  0.0000  0.0001  0.0001 </r>
        <r>  0.0000  0.0002  0.0001  0.0001  0.0000  0.0000  0.0001  0.0001  0.0000 </r>
        <r>  0.0000  0.0000  0.0002  0.0004  0.0000  0.0000  0.0001  0.0000  0.0000 </r>
        <r>  0.0000  0.0002  0.0000  0.0000  0.0000  0.0005  0.0000  0.0000  0.0003 </r>
        <r>  0.0013  0.0000  0.0000  0.0000  0.0000  0.0000  0.0000  0.0000  0.0000 </r>
        <r>  0.0000  0.0002  0.0000  0.0000  0.0000  0.0000  0.0000  0.0001  0.0000 </r>
        <r>  0.0000  0.0002  0.0001  0.0003  0.0000  0.0000  0.0000  0.0000  0.0000 </r>
        <r>  0.0000  0.0000  0.0000  0.0001  0.0000  0.0001  0.0000  0.0000  0.0000 </r>
        <r>  0.0005  0.0001  0.0001  0.0000  0.0001  0.0001  0.0001  0.0000  0.0000 </r>
        <r>  0.0002  0.0001  0.0000  0.0003  0.0004  0.0004  0.0001  0.0000  0.0000 </r>
       </set>
       <set comment="band 157">
        <r>  0.0006  0.0000  0.0001  0.0000  0.0000  0.0001  0.0000  0.0000  0.0001 </r>
        <r>  0.0009  0.0004  0.0000  0.0000  0.0000  0.0002  0.0001  0.0000  0.0002 </r>
        <r>  0.0003  0.0006  0.0004  0.0000  0.0000  0.0000  0.0000  0.0000  0.0000 </r>
        <r>  0.0019  0.0000  0.0001  0.0006  0.0001  0.0001  0.0001  0.0000  0.0000 </r>
        <r>  0.0001  0.0002  0.0004  0.0001  0.0001  0.0000  0.0000  0.0000  0.0000 </r>
        <r>  0.0001  0.0000  0.0000  0.0001  0.0003  0.0000  0.0001  0.0000  0.0000 </r>
        <r>  0.0002  0.0001  0.0000  0.0000  0.0000  0.0001  0.0000  0.0000  0.0001 </r>
        <r>  0.0001  0.0001  0.0003  0.0001  0.0000  0.0000  0.0001  0.0001  0.0000 </r>
        <r>  0.0000  0.0004  0.0003  0.0001  0.0000  0.0000  0.0002  0.0000  0.0001 </r>
        <r>  0.0010  0.0004  0.0000  0.0000  0.0001  0.0000  0.0000  0.0000  0.0001 </r>
        <r>  0.0002  0.0006  0.0003  0.0000  0.0000  0.0000  0.0001  0.0000  0.0003 </r>
        <r>  0.0008  0.0010  0.0000  0.0001  0.0001  0.0000  0.0000  0.0000  0.0000 </r>
        <r>  0.0003  0.0001  0.0000  0.0001  0.0000  0.0000  0.0001  0.0001  0.0000 </r>
        <r>  0.0007  0.0003  0.0001  0.0000  0.0002  0.0001  0.0000  0.0000  0.0000 </r>
       </set>
       <set comment="band 158">
        <r>  0.0000  0.0001  0.0002  0.0004  0.0000  0.0000  0.0000  0.0000  0.0001 </r>
        <r>  0.0011  0.0005  0.0003  0.0003  0.0001  0.0002  0.0001  0.0003  0.0004 </r>
        <r>  0.0001  0.0000  0.0001  0.0000  0.0000  0.0002  0.0003  0.0000  0.0000 </r>
        <r>  0.0000  0.0000  0.0001  0.0000  0.0001  0.0001  0.0000  0.0000  0.0000 </r>
        <r>  0.0000  0.0000  0.0002  0.0000  0.0002  0.0002  0.0000  0.0000  0.0001 </r>
        <r>  0.0031  0.0003  0.0000  0.0000  0.0000  0.0000  0.0001  0.0000  0.0000 </r>
        <r>  0.0011  0.0000  0.0000  0.0001  0.0000  0.0000  0.0000  0.0002  0.0000 </r>
        <r>  0.0024  0.0004  0.0000  0.0001  0.0000  0.0000  0.0000  0.0000  0.0000 </r>
        <r>  0.0000  0.0002  0.0004  0.0001  0.0000  0.0000  0.0000  0.0000  0.0000 </r>
        <r>  0.0003  0.0001  0.0001  0.0000  0.0000  0.0001  0.0003  0.0002  0.0000 </r>
        <r>  0.0001  0.0000  0.0001  0.0000  0.0000  0.0000  0.0000  0.0000  0.0001 </r>
        <r>  0.0003  0.0000  0.0000  0.0001  0.0002  0.0000  0.0002  0.0000  0.0002 </r>
        <r>  0.0009  0.0001  0.0000  0.0001  0.0001  0.0000  0.0000  0.0001  0.0001 </r>
        <r>  0.0003  0.0000  0.0000  0.0000  0.0001  0.0001  0.0000  0.0000  0.0000 </r>
       </set>
       <set comment="band 159">
        <r>  0.0003  0.0000  0.0005  0.0002  0.0000  0.0000  0.0000  0.0000  0.0000 </r>
        <r>  0.0011  0.0005  0.0000  0.0000  0.0000  0.0000  0.0000  0.0000  0.0000 </r>
        <r>  0.0001  0.0000  0.0000  0.0000  0.0001  0.0001  0.0000  0.0000  0.0001 </r>
        <r>  0.0003  0.0000  0.0001  0.0001  0.0000  0.0000  0.0000  0.0001  0.0001 </r>
        <r>  0.0003  0.0000  0.0000  0.0003  0.0000  0.0000  0.0002  0.0001  0.0000 </r>
        <r>  0.0000  0.0003  0.0002  0.0000  0.0000  0.0000  0.0001  0.0001  0.0000 </r>
        <r>  0.0003  0.0004  0.0000  0.0000  0.0000  0.0001  0.0000  0.0003  0.0000 </r>
        <r>  0.0001  0.0004  0.0000  0.0003  0.0000  0.0000  0.0001  0.0000  0.0001 </r>
        <r>  0.0002  0.0000  0.0003  0.0004  0.0000  0.0000  0.0000  0.0000  0.0001 </r>
        <r>  0.0000  0.0001  0.0000  0.0008  0.0001  0.0002  0.0000  0.0001  0.0000 </r>
        <r>  0.0021  0.0004  0.0001  0.0000  0.0000  0.0000  0.0000  0.0001  0.0001 </r>
        <r>  0.0000  0.0001  0.0000  0.0000  0.0001  0.0000  0.0000  0.0000  0.0000 </r>
        <r>  0.0000  0.0000  0.0006  0.0000  0.0002  0.0001  0.0001  0.0000  0.0000 </r>
        <r>  0.0002  0.0000  0.0000  0.0000  0.0000  0.0000  0.0001  0.0003  0.0001 </r>
       </set>
       <set comment="band 160">
        <r>  0.0001  0.0000  0.0001  0.0001  0.0001  0.0002  0.0000  0.0000  0.0000 </r>
        <r>  0.0007  0.0004  0.0003  0.0002  0.0000  0.0000  0.0000  0.0000  0.0001 </r>
        <r>  0.0000  0.0004  0.0000  0.0002  0.0003  0.0004  0.0000  0.0001  0.0000 </r>
        <r>  0.0000  0.0000  0.0008  0.0000  0.0001  0.0000  0.0000  0.0000  0.0000 </r>
        <r>  0.0001  0.0001  0.0002  0.0008  0.0000  0.0003  0.0000  0.0000  0.0000 </r>
        <r>  0.0000  0.0001  0.0000  0.0001  0.0000  0.0000  0.0001  0.0001  0.0000 </r>
        <r>  0.0003  0.0000  0.0001  0.0000  0.0006  0.0009  0.0000  0.0000  0.0000 </r>
        <r>  0.0001  0.0002  0.0004  0.0000  0.0000  0.0000  0.0000  0.0002  0.0001 </r>
        <r>  0.0000  0.0000  0.0001  0.0000  0.0001  0.0000  0.0000  0.0000  0.0000 </r>
        <r>  0.0006  0.0000  0.0000  0.0003  0.0000  0.0000  0.0000  0.0000  0.0000 </r>
        <r>  0.0000  0.0030  0.0004  0.0001  0.0000  0.0001  0.0000  0.0000  0.0002 </r>
        <r>  0.0001  0.0009  0.0006  0.0000  0.0002  0.0003  0.0001  0.0001  0.0000 </r>
        <r>  0.0003  0.0001  0.0007  0.0000  0.0000  0.0001  0.0000  0.0000  0.0000 </r>
        <r>  0.0000  0.0001  0.0004  0.0006  0.0003  0.0001  0.0001  0.0004  0.0001 </r>
       </set>
      </set>
     </set>
    </set>
   </array>
  </projected>
 </calculation>
 <structure name="finalpos" >
  <crystal>
   <varray name="basis" >
    <v>      30.00000000       0.00000000       0.00000000 </v>
    <v>       0.00000000      30.00000000       0.00000000 </v>
    <v>       0.00000000       0.00000000      30.00000000 </v>
   </varray>
   <i name="volume">  27000.00000000 </i>
   <varray name="rec_basis" >
    <v>       0.03333333       0.00000000       0.00000000 </v>
    <v>       0.00000000       0.03333333       0.00000000 </v>
    <v>       0.00000000       0.00000000       0.03333333 </v>
   </varray>
  </crystal>
  <varray name="positions" >
   <v>       0.49997944       0.49998691       0.50002442 </v>
   <v>       0.58589331       0.52284425       0.53348842 </v>
   <v>       0.66654939       0.57017701       0.55019363 </v>
   <v>       0.58209569       0.58835658       0.45222338 </v>
   <v>       0.50945442       0.59167659       0.51304874 </v>
   <v>       0.65596409       0.53465733       0.47047948 </v>
   <v>       0.59384892       0.62699841       0.53805797 </v>
   <v>       0.51201355       0.54017702       0.59053384 </v>
   <v>       0.56758200       0.49690320       0.44389332 </v>
   <v>       0.62316739       0.53937372       0.38594358 </v>
   <v>       0.65256962       0.63883780       0.60800730 </v>
   <v>       0.59002411       0.57323878       0.61394082 </v>
   <v>       0.43493778       0.54666427       0.54291372 </v>
   <v>       0.54275817       0.66644014       0.47487989 </v>
  </varray>
 </structure>
</modeling>
